 Q-Chem 4.4, Q-Chem, Inc., Pleasanton, CA (2016)
 Q-Chem 4.4.1 for Intel X86 Linux

User input:
--------------------------------------------------------------
$comment
--------------------------------------------------------

  141    -544.3020857819      5.97E-09 Convergence criterion met
 Total energy in the final basis set = -544.3020857819
 Total job time:  143.16s(wall), 1112.54s(cpu)
        *  Thank you very much for using Q-Chem.  Have a nice day.  *
 Q-Chem 4.4, Q-Chem, Inc., Pleasanton, CA (2016)
 Q-Chem 4.4.1 for Intel X86 Linux

User input:
--------------------------------------------------------------

$comment
-----------------------

   11    -544.3020857819      7.21E-10 Convergence criterion met
 Total energy in the final basis set = -544.3020857819
   59    -544.3767820981      7.98E-09 Convergence criterion met
 Total energy in the final basis set = -544.3767820981
  154    -544.4195106217      7.90E-09 Convergence criterion met
 Total energy in the final basis set = -544.4195106217
   82    -544.4409258587      9.66E-09 Convergence criterion met
 Total energy in the final basis set = -544.4409258587
   58    -544.4504812523      6.56E-09 Convergence criterion met
 Total energy in the final basis set = -544.4504812523
   45    -544.4512611840      6.86E-09 Convergence criterion met
 Total energy in the final basis set = -544.4512611840
   54    -544.4519740640      2.92E-09 Convergence criterion met
   23    -544.6359884441      3.10E-10 Convergence criterion met
 Total energy in the final basis set = -544.6359884441
   23    -544.6361666806      5.57E-09 Convergence criterion met
 Total energy in the final basis set = -544.6361666806
   23    -544.6361520816      3.19E-09 Convergence criterion met
 Total energy in the final basis set = -544.6361520816
   22    -544.6363152169      3.15E-09 Convergence criterion met
 Total energy in the final basis set = -544.6363152169
   19    -544.6363454015      1.97E-09 Convergence criterion met
 Total energy in the final basis set = -544.6363454015
   21    -544.6363591147      2.74E-09 Convergence criterion met
 Total energy in the final basis set = -544.6363591147

             Standard Nuclear Orientation (Angstroms)
    I     Atom           X                Y                Z
 ----------------------------------------------------------------
    1      Zr      1.5247513591     0.0034106081     0.0002837982
    2      O       3.3595198626     0.7581317827    -0.0002266610
    3      O       3.3634998820    -0.7403986005    -0.0003748197
    4      O       0.0000999816    -0.0022994822    -1.3205299632
    5      O      -0.0000621279    -0.0025698200     1.3210560451
    6      Zr     -1.5247067996    -0.0068375100     0.0001631275
    7      O      -3.3628829833    -0.7537862784     0.0000040295
    8      O      -3.3601491747     0.7444693003    -0.0003755563
 ----------------------------------------------------------------

   19    -544.6363597408      7.02E-10 Convergence criterion met
 Total energy in the final basis set = -544.6363597408
 Final energy is   -544.636359740767
 **  OPTIMIZATION CONVERGED  **

                    Orbital Energies (a.u.)
 --------------------------------------------------------------

 Alpha MOs
 -- Occupied --
-19.214 -19.214 -19.214 -19.214 -19.177 -19.177  -2.105  -2.102
 -1.343  -1.318  -1.309  -1.306  -1.304  -1.299  -1.060  -1.048
 -0.930  -0.919  -0.836  -0.836  -0.458  -0.453  -0.445  -0.442
 -0.426  -0.423  -0.402  -0.391  -0.383  -0.370  -0.361  -0.347
 -0.332  -0.312  -0.282  -0.274

          Ground-State Mulliken Net Atomic Charges

     Atom                 Charge (a.u.)
  ----------------------------------------
      1 Zr                    1.876713
      2 O                    -0.456509
      3 O                    -0.456536
      4 O                    -0.963693
      5 O                    -0.963673
      6 Zr                    1.876652
      7 O                    -0.455687
      8 O                    -0.457267
  ----------------------------------------
  Sum of atomic charges =     0.000000

                    Cartesian Multipole Moments
 -----------------------------------------------------------------
    Charge (ESU x 10^10)
                 0.0000
    Dipole Moment (Debye)
         X      -0.0005      Y      -0.0253      Z       0.0027
       Tot       0.0254
    Quadrupole Moments (Debye-Ang)
        XX    -115.5108     XY      -0.0504     YY     -69.0703
        XZ       0.0039     YZ       0.0017     ZZ     -81.2937

 Total job time:  905.15s(wall), 8091.98s(cpu)
        *  Thank you very much for using Q-Chem.  Have a nice day.  *
