 Q-Chem 4.4, Q-Chem, Inc., Pleasanton, CA (2016)
 Q-Chem 4.4.1 for Intel X86 Linux

User input:
--------------------------------------------------------------
$comment
--------------------------------------------------------

   22    -796.1903513357      1.24E-09 Convergence criterion met
 Total energy in the final basis set = -796.1903513357
 Total job time:  4.17s(wall), 40.66s(cpu)
        *  Thank you very much for using Q-Chem.  Have a nice day.  *
 Q-Chem 4.4, Q-Chem, Inc., Pleasanton, CA (2016)
 Q-Chem 4.4.1 for Intel X86 Linux

User input:
--------------------------------------------------------------

$comment
-----------------------

    2    -796.1903513357      4.20E-10 Convergence criterion met
 Total energy in the final basis set = -796.1903513357
   29    -796.3561071304      8.31E-09 Convergence criterion met
 Total energy in the final basis set = -796.3561071304
   11    -796.3575661713      3.21E-09 Convergence criterion met
 Total energy in the final basis set = -796.3575661713
   11    -796.3589275400      4.05E-10 Convergence criterion met
 Total energy in the final basis set = -796.3589275400
    9    -796.3590002969      3.66E-09 Convergence criterion met
 Total energy in the final basis set = -796.3590002969

             Standard Nuclear Orientation (Angstroms)
    I     Atom           X                Y                Z
 ----------------------------------------------------------------
    1      S       0.0000000000     0.0000000000    -0.9637033415
    2      S       0.0000000000     0.0000000000     0.9637033415
 ----------------------------------------------------------------

   10    -796.3590017132      4.68E-10 Convergence criterion met
 Total energy in the final basis set = -796.3590017132
 Final energy is   -796.359001713189
 **  OPTIMIZATION CONVERGED  **

                    Orbital Energies (a.u.)
 --------------------------------------------------------------

 Alpha MOs
 -- Occupied --
-88.922 -88.922  -7.997  -7.997  -5.958  -5.958  -5.958  -5.958
 -5.958  -5.958  -0.849  -0.643  -0.407  -0.383  -0.383  -0.256
 -0.256

 Beta MOs
 -- Occupied --
-88.916 -88.916  -7.991  -7.991  -5.955  -5.954  -5.946  -5.946
 -5.946  -5.946  -0.819  -0.588  -0.384  -0.332  -0.332

          Ground-State Mulliken Net Atomic Charges

     Atom                 Charge (a.u.)    Spin (a.u.)
  --------------------------------------------------------
      1 S                     0.000000       1.000000
      2 S                     0.000000       1.000000
  --------------------------------------------------------
  Sum of atomic charges =     0.000000

                    Cartesian Multipole Moments
 -----------------------------------------------------------------
    Charge (ESU x 10^10)
                 0.0000
    Dipole Moment (Debye)
         X       0.0000      Y       0.0000      Z       0.0000
       Tot       0.0000
    Quadrupole Moments (Debye-Ang)
        XX     -26.0807     XY       0.0000     YY     -26.0807
        XZ       0.0000     YZ       0.0000     ZZ     -24.9887

 Total job time:  20.21s(wall), 152.64s(cpu)
        *  Thank you very much for using Q-Chem.  Have a nice day.  *
