 Q-Chem 4.4, Q-Chem, Inc., Pleasanton, CA (2016)
 Q-Chem 4.4.1 for Intel X86 Linux

User input:
--------------------------------------------------------------
$comment
--------------------------------------------------------

   55   -1732.7022776767      9.14E-09 Convergence criterion met
 Total energy in the final basis set = -1732.7022776767
 Total job time:  57.68s(wall), 515.15s(cpu)
        *  Thank you very much for using Q-Chem.  Have a nice day.  *
 Q-Chem 4.4, Q-Chem, Inc., Pleasanton, CA (2016)
 Q-Chem 4.4.1 for Intel X86 Linux

User input:
--------------------------------------------------------------

$comment
-----------------------

    5   -1732.7022776767      7.23E-09 Convergence criterion met
 Total energy in the final basis set = -1732.7022776767
   31   -1732.7433669011      6.22E-09 Convergence criterion met
 Total energy in the final basis set = -1732.7433669011
   31   -1732.7721331672      7.78E-09 Convergence criterion met
 Total energy in the final basis set = -1732.7721331672
   28   -1732.7915321685      9.10E-09 Convergence criterion met
 Total energy in the final basis set = -1732.7915321685
   29   -1732.8040235277      8.35E-09 Convergence criterion met
 Total energy in the final basis set = -1732.8040235277
   27   -1732.8115411218      4.96E-09 Convergence criterion met
 Total energy in the final basis set = -1732.8115411218
   24   -1732.8155714625      3.99E-09 Convergence criterion met
   23   -1732.8182060966      7.35E-09 Convergence criterion met
 Total energy in the final basis set = -1732.8182060966
   23   -1732.8184129639      2.54E-09 Convergence criterion met
 Total energy in the final basis set = -1732.8184129639
   22   -1732.8184611933      4.34E-09 Convergence criterion met
 Total energy in the final basis set = -1732.8184611933
   21   -1732.8184751242      7.87E-09 Convergence criterion met
 Total energy in the final basis set = -1732.8184751242
   20   -1732.8184812992      4.50E-09 Convergence criterion met
 Total energy in the final basis set = -1732.8184812992
   20   -1732.8184827843      4.45E-09 Convergence criterion met
 Total energy in the final basis set = -1732.8184827843

             Standard Nuclear Orientation (Angstroms)
    I     Atom           X                Y                Z
 ----------------------------------------------------------------
    1      Zr      1.7631011984    -0.2084847874     0.1168921971
    2      Zr     -0.4972429965     1.4308360848     0.0166547125
    3      Zr     -1.2540135269    -1.2564400078     0.1167358513
    4      S       1.6952545142     1.8846702075    -1.0939787449
    5      S      -2.4988779318     0.4281281235    -1.0938348148
    6      S       0.7519644785    -2.1642173276    -0.9487615541
    7      S       0.0400542641    -0.1146022931     2.0300023530
 ----------------------------------------------------------------

   18   -1732.8184830126      9.67E-09 Convergence criterion met
 Total energy in the final basis set = -1732.8184830126
 Final energy is   -1732.81848301258
 **  OPTIMIZATION CONVERGED  **

                    Orbital Energies (a.u.)
 --------------------------------------------------------------

 Alpha MOs
 -- Occupied --
-88.849 -88.832 -88.823 -88.823  -7.926  -7.911  -7.901  -7.901
 -5.886  -5.886  -5.885  -5.871  -5.870  -5.870  -5.861  -5.861
 -5.860  -5.860  -5.860  -5.860  -2.038  -2.036  -2.020  -1.249
 -1.244  -1.242  -1.240  -1.238  -1.233  -1.226  -1.208  -1.203
 -0.680  -0.664  -0.651  -0.647  -0.327  -0.326  -0.321  -0.305
 -0.302  -0.298  -0.291  -0.287  -0.279  -0.274  -0.257  -0.254
 -0.204  -0.180

          Ground-State Mulliken Net Atomic Charges

     Atom                 Charge (a.u.)
  ----------------------------------------
      1 Zr                    0.409551
      2 Zr                    0.487674
      3 Zr                    0.409460
      4 S                    -0.423746
      5 S                    -0.423817
      6 S                    -0.300201
      7 S                    -0.158919
  ----------------------------------------
  Sum of atomic charges =     0.000000

                    Cartesian Multipole Moments
 -----------------------------------------------------------------
    Charge (ESU x 10^10)
                 0.0000
    Dipole Moment (Debye)
         X       0.3082      Y      -0.8855      Z       4.4541
       Tot       4.5517
    Quadrupole Moments (Debye-Ang)
        XX    -115.2984     XY       1.1375     YY    -118.1824
        XZ      -0.6562     YZ       1.8899     ZZ    -132.3283

 Total job time:  466.93s(wall), 4058.46s(cpu)
        *  Thank you very much for using Q-Chem.  Have a nice day.  *
