 Q-Chem 4.4, Q-Chem, Inc., Pleasanton, CA (2016)
 Q-Chem 4.4.1 for Intel X86 Linux

User input:
--------------------------------------------------------------
$comment
--------------------------------------------------------

   62    -717.0350555754      7.18E-09 Convergence criterion met
 Total energy in the final basis set = -717.0350555754
 Total job time:  41.44s(wall), 307.89s(cpu)
        *  Thank you very much for using Q-Chem.  Have a nice day.  *
 Q-Chem 4.4, Q-Chem, Inc., Pleasanton, CA (2016)
 Q-Chem 4.4.1 for Intel X86 Linux

User input:
--------------------------------------------------------------

$comment
-----------------------

    5    -717.0350555754      5.39E-09 Convergence criterion met
 Total energy in the final basis set = -717.0350555754
   26    -717.0621073285      5.42E-09 Convergence criterion met
 Total energy in the final basis set = -717.0621073285
   84    -717.0729655550      6.86E-09 Convergence criterion met
 Total energy in the final basis set = -717.0729655550
   35    -717.0831204031      4.79E-09 Convergence criterion met
 Total energy in the final basis set = -717.0831204031
   36    -717.0873252314      2.65E-10 Convergence criterion met
 Total energy in the final basis set = -717.0873252314
   29    -717.0884072009      9.75E-09 Convergence criterion met
 Total energy in the final basis set = -717.0884072009
   30    -717.0887510554      4.74E-09 Convergence criterion met
   25    -717.2209405271      1.37E-09 Convergence criterion met
 Total energy in the final basis set = -717.2209405271
   22    -717.2215554080      5.93E-09 Convergence criterion met
 Total energy in the final basis set = -717.2215554080
   21    -717.2218365588      7.38E-09 Convergence criterion met
 Total energy in the final basis set = -717.2218365588
   21    -717.2218815884      6.18E-09 Convergence criterion met
 Total energy in the final basis set = -717.2218815884
   20    -717.2218788816      6.81E-09 Convergence criterion met
 Total energy in the final basis set = -717.2218788816
   18    -717.2218905680      8.33E-09 Convergence criterion met
 Total energy in the final basis set = -717.2218905680

             Standard Nuclear Orientation (Angstroms)
    I     Atom           X                Y                Z
 ----------------------------------------------------------------
    1      Zr     -0.4587982407     0.0000000000     1.9642426956
    2      O       1.2907691529     0.0000000000     0.8731377548
    3      O      -0.9901513531     0.0000000000     3.6813962775
    4      O      -1.3277258745     0.0000000000     0.1049013324
    5      Zr      0.4072727281     0.0000000000    -0.9395349300
    6      S       1.0786335889     0.0000000000    -3.1143831302
 ----------------------------------------------------------------

   17    -717.2218908715      3.38E-09 Convergence criterion met
 Total energy in the final basis set = -717.2218908715
 Final energy is   -717.221890871457
 **  OPTIMIZATION CONVERGED  **

                    Orbital Energies (a.u.)
 --------------------------------------------------------------

 Alpha MOs
 -- Occupied --
-88.810 -19.175 -19.175 -19.136  -7.888  -5.849  -5.846  -5.846
 -2.106  -2.102  -1.325  -1.312  -1.309  -1.308  -1.300  -1.292
 -0.930  -0.926  -0.858  -0.630  -0.409  -0.406  -0.393  -0.393
 -0.366  -0.365  -0.328  -0.313  -0.307  -0.259  -0.258  -0.242

          Ground-State Mulliken Net Atomic Charges

     Atom                 Charge (a.u.)
  ----------------------------------------
      1 Zr                    1.645877
      2 O                    -1.005384
      3 O                    -0.557264
      4 O                    -1.006645
      5 Zr                    1.296390
      6 S                    -0.372973
  ----------------------------------------
  Sum of atomic charges =     0.000000

                    Cartesian Multipole Moments
 -----------------------------------------------------------------
    Charge (ESU x 10^10)
                 0.0000
    Dipole Moment (Debye)
         X      -0.7400      Y       0.0000      Z       2.4752
       Tot       2.5834
    Quadrupole Moments (Debye-Ang)
        XX     -85.6794     XY       0.0000     YY     -63.2332
        XZ       9.4826     YZ       0.0000     ZZ    -111.4745

 Total job time:  1299.72s(wall), 10538.23s(cpu)
        *  Thank you very much for using Q-Chem.  Have a nice day.  *
