 Q-Chem 4.4, Q-Chem, Inc., Pleasanton, CA (2016)
 Q-Chem 4.4.1 for Intel X86 Linux

User input:
--------------------------------------------------------------
$comment
--------------------------------------------------------

  186    -717.0368607434      3.31E-09 Convergence criterion met
 Total energy in the final basis set = -717.0368607434
 Total job time:  111.01s(wall), 874.32s(cpu)
        *  Thank you very much for using Q-Chem.  Have a nice day.  *
 Q-Chem 4.4, Q-Chem, Inc., Pleasanton, CA (2016)
 Q-Chem 4.4.1 for Intel X86 Linux

User input:
--------------------------------------------------------------

$comment
-----------------------

    2    -717.0368607434      5.85E-09 Convergence criterion met
 Total energy in the final basis set = -717.0368607434
   31    -717.0602849211      6.68E-09 Convergence criterion met
 Total energy in the final basis set = -717.0602849211
   27    -717.0676282070      5.10E-09 Convergence criterion met
 Total energy in the final basis set = -717.0676282070
   30    -717.0741457830      4.24E-09 Convergence criterion met
 Total energy in the final basis set = -717.0741457830
   30    -717.0773118368      2.80E-09 Convergence criterion met
 Total energy in the final basis set = -717.0773118368
   29    -717.0793017878      8.41E-09 Convergence criterion met
 Total energy in the final basis set = -717.0793017878
   27    -717.0801530996      7.95E-09 Convergence criterion met
   18    -717.2363188866      3.40E-09 Convergence criterion met
 Total energy in the final basis set = -717.2363188866
   19    -717.2363230564      6.29E-09 Convergence criterion met
 Total energy in the final basis set = -717.2363230564
   20    -717.2363304097      3.46E-09 Convergence criterion met
 Total energy in the final basis set = -717.2363304097
   20    -717.2363430725      8.56E-09 Convergence criterion met
 Total energy in the final basis set = -717.2363430725
   21    -717.2363538905      2.02E-09 Convergence criterion met
 Total energy in the final basis set = -717.2363538905
   19    -717.2363575370      8.11E-09 Convergence criterion met
 Total energy in the final basis set = -717.2363575370

             Standard Nuclear Orientation (Angstroms)
    I     Atom           X                Y                Z
 ----------------------------------------------------------------
    1      Zr      0.5120704955     0.0000000000     1.7632779999
    2      O       0.5524776281     0.0000000000     3.5474670194
    3      O      -1.1414952469     0.0000000000     0.6090130947
    4      S       1.9531716647     0.0000000000    -0.3506301834
    5      Zr     -0.4386773440     0.0000000000    -1.2758405121
    6      O      -1.4375471974     0.0000000000    -2.7554674185
 ----------------------------------------------------------------

   17    -717.2363577609      8.74E-09 Convergence criterion met
 Total energy in the final basis set = -717.2363577609
 Final energy is   -717.236357760862
 **  OPTIMIZATION CONVERGED  **

                    Orbital Energies (a.u.)
 --------------------------------------------------------------

 Alpha MOs
 -- Occupied --
-88.846 -19.174 -19.141 -19.140  -7.923  -5.883  -5.882  -5.881
 -2.098  -2.097  -1.320  -1.304  -1.302  -1.301  -1.299  -1.293
 -0.929  -0.865  -0.864  -0.671  -0.406  -0.400  -0.384  -0.354
 -0.343  -0.339  -0.337  -0.332  -0.302  -0.293  -0.282  -0.273

          Ground-State Mulliken Net Atomic Charges

     Atom                 Charge (a.u.)
  ----------------------------------------
      1 Zr                    1.287107
      2 O                    -0.573802
      3 O                    -1.064058
      4 S                    -0.362006
      5 Zr                    1.287055
      6 O                    -0.574297
  ----------------------------------------
  Sum of atomic charges =     0.000000

                    Cartesian Multipole Moments
 -----------------------------------------------------------------
    Charge (ESU x 10^10)
                 0.0000
    Dipole Moment (Debye)
         X       0.4369      Y       0.0000      Z      -0.1611
       Tot       0.4656
    Quadrupole Moments (Debye-Ang)
        XX     -88.6515     XY       0.0000     YY     -64.3455
        XZ      -4.3103     YZ       0.0000     ZZ    -100.5748

 Total job time:  1254.55s(wall), 11123.67s(cpu)
        *  Thank you very much for using Q-Chem.  Have a nice day.  *
