 Q-Chem 4.4, Q-Chem, Inc., Pleasanton, CA (2016)
 Q-Chem 4.4.1 for Intel X86 Linux

User input:
--------------------------------------------------------------
$comment
--------------------------------------------------------

   61    -717.1708252953      9.87E-09 Convergence criterion met
 Total energy in the final basis set = -717.1708252953
 Total job time:  40.28s(wall), 310.09s(cpu)
        *  Thank you very much for using Q-Chem.  Have a nice day.  *
 Q-Chem 4.4, Q-Chem, Inc., Pleasanton, CA (2016)
 Q-Chem 4.4.1 for Intel X86 Linux

User input:
--------------------------------------------------------------

$comment
-----------------------

    3    -717.1708252953      2.99E-09 Convergence criterion met
 Total energy in the final basis set = -717.1708252953
   21    -717.2079083514      6.87E-09 Convergence criterion met
 Total energy in the final basis set = -717.2079083514
   22    -717.2205409815      7.69E-09 Convergence criterion met
 Total energy in the final basis set = -717.2205409815
   21    -717.2218156217      1.69E-09 Convergence criterion met
 Total energy in the final basis set = -717.2218156217
   20    -717.2218981894      3.64E-09 Convergence criterion met
 Total energy in the final basis set = -717.2218981894
   19    -717.2219068182      3.95E-09 Convergence criterion met
 Total energy in the final basis set = -717.2219068182

             Standard Nuclear Orientation (Angstroms)
    I     Atom           X                Y                Z
 ----------------------------------------------------------------
    1      Zr      1.2584553087    -0.0003287184     0.0000000000
    2      S       3.5345434424     0.0005725528     0.0000000000
    3      O      -0.2332882702    -1.3645695895     0.0000000000
    4      O      -0.2323331564     1.3645215561     0.0000000000
    5      Zr     -1.7720849881     0.0003918943     0.0000000000
    6      O      -3.5701323363     0.0008723047     0.0000000000
 ----------------------------------------------------------------

   18    -717.2219078860      4.80E-09 Convergence criterion met
 Total energy in the final basis set = -717.2219078860
 Final energy is   -717.221907886046
 **  OPTIMIZATION CONVERGED  **

                    Orbital Energies (a.u.)
 --------------------------------------------------------------

 Alpha MOs
 -- Occupied --
-88.810 -19.175 -19.175 -19.136  -7.888  -5.849  -5.846  -5.846
 -2.106  -2.102  -1.325  -1.312  -1.309  -1.308  -1.300  -1.293
 -0.930  -0.926  -0.858  -0.630  -0.409  -0.406  -0.393  -0.392
 -0.366  -0.365  -0.328  -0.313  -0.307  -0.260  -0.258  -0.243

          Ground-State Mulliken Net Atomic Charges

     Atom                 Charge (a.u.)
  ----------------------------------------
      1 Zr                    1.296708
      2 S                    -0.372851
      3 O                    -1.006258
      4 O                    -1.006163
      5 Zr                    1.646249
      6 O                    -0.557686
  ----------------------------------------
  Sum of atomic charges =     0.000000

                    Cartesian Multipole Moments
 -----------------------------------------------------------------
    Charge (ESU x 10^10)
                 0.0000
    Dipole Moment (Debye)
         X      -2.5658      Y      -0.0030      Z       0.0000
       Tot       2.5658
    Quadrupole Moments (Debye-Ang)
        XX    -115.8286     XY      -0.0083     YY     -82.5949
        XZ       0.0000     YZ       0.0000     ZZ     -63.2341

 Total job time:  100.87s(wall), 746.59s(cpu)
        *  Thank you very much for using Q-Chem.  Have a nice day.  *
