 Q-Chem 4.4, Q-Chem, Inc., Pleasanton, CA (2016)
 Q-Chem 4.4.1 for Intel X86 Linux

User input:
--------------------------------------------------------------
$comment
--------------------------------------------------------

   77    -792.2303043941      8.72E-09 Convergence criterion met
 Total energy in the final basis set = -792.2303043941
 Total job time:  64.30s(wall), 535.24s(cpu)
        *  Thank you very much for using Q-Chem.  Have a nice day.  *
 Q-Chem 4.4, Q-Chem, Inc., Pleasanton, CA (2016)
 Q-Chem 4.4.1 for Intel X86 Linux

User input:
--------------------------------------------------------------

$comment
-----------------------

   60    -792.2605575742      9.81E-09 Convergence criterion met
 Total energy in the final basis set = -792.2605575742
   40    -792.3144585374      5.39E-09 Convergence criterion met
 Total energy in the final basis set = -792.3144585374
   38    -792.3362767646      1.61E-09 Convergence criterion met
 Total energy in the final basis set = -792.3362767646
   36    -792.3427774460      4.07E-09 Convergence criterion met
 Total energy in the final basis set = -792.3427774460
   35    -792.3440685522      5.64E-09 Convergence criterion met
 Total energy in the final basis set = -792.3440685522
   33    -792.3448006470      6.96E-09 Convergence criterion met
 Total energy in the final basis set = -792.3448006470
   34    -792.3455543836      4.03E-09 Convergence criterion met
   26    -792.5075204582      1.40E-09 Convergence criterion met
 Total energy in the final basis set = -792.5075204582
   22    -792.5078799734      4.51E-09 Convergence criterion met
 Total energy in the final basis set = -792.5078799734
   22    -792.5080246064      2.06E-09 Convergence criterion met
 Total energy in the final basis set = -792.5080246064
   21    -792.5080465340      4.03E-09 Convergence criterion met
 Total energy in the final basis set = -792.5080465340
   21    -792.5080608356      2.20E-09 Convergence criterion met
 Total energy in the final basis set = -792.5080608356
   21    -792.5080656622      2.58E-09 Convergence criterion met
 Total energy in the final basis set = -792.5080656622

             Standard Nuclear Orientation (Angstroms)
    I     Atom           X                Y                Z
 ----------------------------------------------------------------
    1      Zr     -2.2654530736    -0.3748180922    -0.1291547074
    2      O      -1.0401286846     1.1257360331    -0.6736765838
    3      O      -3.1149360881     0.1492845081     1.3441658153
    4      O      -0.5169596035    -1.1820555209     0.4518905317
    5      Zr      0.6625175646     0.3648109364     0.0232353116
    6      O       2.1894200324     0.1338916130    -1.1628652115
    7      S       3.0525298528     0.9713705226     0.1464048441
 ----------------------------------------------------------------

   19    -792.5080664534      4.25E-10 Convergence criterion met
 Total energy in the final basis set = -792.5080664534
 Final energy is   -792.508066453366
 **  OPTIMIZATION CONVERGED  **

                    Orbital Energies (a.u.)
 --------------------------------------------------------------

 Alpha MOs
 -- Occupied --
-88.876 -19.179 -19.160 -19.160 -19.129  -7.948  -5.915  -5.905
 -5.902  -2.081  -2.067  -1.307  -1.288  -1.285  -1.283  -1.269
 -1.268  -0.962  -0.911  -0.903  -0.851  -0.653  -0.410  -0.401
 -0.399  -0.388  -0.379  -0.371  -0.356  -0.355  -0.334  -0.320
 -0.307  -0.304  -0.265  -0.225

          Ground-State Mulliken Net Atomic Charges

     Atom                 Charge (a.u.)
  ----------------------------------------
      1 Zr                    1.638700
      2 O                    -0.965104
      3 O                    -0.572232
      4 O                    -0.965106
      5 Zr                    1.564325
      6 O                    -0.707945
      7 S                     0.007362
  ----------------------------------------
  Sum of atomic charges =     0.000000

                    Cartesian Multipole Moments
 -----------------------------------------------------------------
    Charge (ESU x 10^10)
                 0.0000
    Dipole Moment (Debye)
         X      -5.0138      Y      -2.4131      Z      -2.6113
       Tot       6.1465
    Quadrupole Moments (Debye-Ang)
        XX     -84.5148     XY       9.1823     YY     -79.6135
        XZ      21.1715     YZ       5.9488     ZZ     -80.7048

 Total job time:  1996.92s(wall), 17223.10s(cpu)
        *  Thank you very much for using Q-Chem.  Have a nice day.  *
