 Q-Chem 4.4, Q-Chem, Inc., Pleasanton, CA (2016)
 Q-Chem 4.4.1 for Intel X86 Linux

User input:
--------------------------------------------------------------
$comment
--------------------------------------------------------

  100    -867.3318601951      9.43E-09 Convergence criterion met
 Total energy in the final basis set = -867.3318601951
 Total job time:  69.22s(wall), 787.22s(cpu)
        *  Thank you very much for using Q-Chem.  Have a nice day.  *
 Q-Chem 4.4, Q-Chem, Inc., Pleasanton, CA (2016)
 Q-Chem 4.4.1 for Intel X86 Linux

User input:
--------------------------------------------------------------

$comment
-----------------------

    3    -867.3318601951      7.95E-09 Convergence criterion met
 Total energy in the final basis set = -867.3318601951
   55    -867.4055188726      5.70E-09 Convergence criterion met
 Total energy in the final basis set = -867.4055188726
  152    -867.4510623423      6.27E-09 Convergence criterion met
 Total energy in the final basis set = -867.4510623423
   74    -867.4762935448      6.09E-09 Convergence criterion met
 Total energy in the final basis set = -867.4762935448
   63    -867.4867850629      5.99E-09 Convergence criterion met
 Total energy in the final basis set = -867.4867850629
   57    -867.4898714064      6.69E-09 Convergence criterion met
 Total energy in the final basis set = -867.4898714064
   58    -867.4950946215      5.27E-09 Convergence criterion met
   32    -867.6241702499      5.01E-09 Convergence criterion met
 Total energy in the final basis set = -867.6241702499
   26    -867.6241727267      9.21E-09 Convergence criterion met
 Total energy in the final basis set = -867.6241727267
   24    -867.6241744185      7.11E-09 Convergence criterion met
 Total energy in the final basis set = -867.6241744185
   26    -867.6241754635      7.20E-09 Convergence criterion met
 Total energy in the final basis set = -867.6241754635
   32    -867.6241765059      6.14E-09 Convergence criterion met
 Total energy in the final basis set = -867.6241765059
   25    -867.6241776625      9.24E-09 Convergence criterion met
 Total energy in the final basis set = -867.6241776625

             Standard Nuclear Orientation (Angstroms)
    I     Atom           X                Y                Z
 ----------------------------------------------------------------
    1      Zr      1.0643876192     0.2890158850     0.0066731964
    2      S       3.7223873817     0.0452960584    -0.0138969586
    3      O       2.6151918466    -1.1496844462     0.0051333635
    4      O      -0.2713938556     0.1741401108    -1.3089930766
    5      O      -0.2615422817     0.1644961109     1.3300147658
    6      Zr     -1.9984881341     0.0375952111     0.0180549242
    7      O      -2.9527980585    -1.5799485194    -0.0122421425
    8      O      -3.0530845177     1.5805095894    -0.0247440723
 ----------------------------------------------------------------

   25    -867.6241784701      3.52E-09 Convergence criterion met
 Total energy in the final basis set = -867.6241784701
 Final energy is   -867.624178470133
 **  OPTIMIZATION CONVERGED  **

                    Orbital Energies (a.u.)
 --------------------------------------------------------------

 Alpha MOs
 -- Occupied --
-88.986 -19.255 -19.181 -19.180 -19.155 -19.155  -8.054  -6.019
 -6.014  -6.008  -2.112  -2.051  -1.333  -1.322  -1.314  -1.271
 -1.258  -1.251  -1.075  -0.926  -0.923  -0.877  -0.860  -0.720
 -0.485  -0.474  -0.460  -0.419  -0.402  -0.393  -0.379  -0.372
 -0.359  -0.342  -0.331  -0.324  -0.310  -0.304  -0.303  -0.269

          Ground-State Mulliken Net Atomic Charges

     Atom                 Charge (a.u.)
  ----------------------------------------
      1 Zr                    1.580681
      2 S                     0.268544
      3 O                    -0.602244
      4 O                    -0.891415
      5 O                    -0.895553
      6 Zr                    1.689745
      7 O                    -0.572237
      8 O                    -0.577521
  ----------------------------------------
  Sum of atomic charges =     0.000000

                    Cartesian Multipole Moments
 -----------------------------------------------------------------
    Charge (ESU x 10^10)
                 0.0000
    Dipole Moment (Debye)
         X       7.7186      Y       2.9928      Z       0.1985
       Tot       8.2809
    Quadrupole Moments (Debye-Ang)
        XX     -96.0136     XY       7.9064     YY     -90.9813
        XZ      -0.7274     YZ       0.1506     ZZ     -86.7078

 Total job time:  1618.25s(wall), 17634.51s(cpu)
        *  Thank you very much for using Q-Chem.  Have a nice day.  *
