 Q-Chem 4.4, Q-Chem, Inc., Pleasanton, CA (2016)
 Q-Chem 4.4.1 for Intel X86 Linux

User input:
--------------------------------------------------------------
$comment
--------------------------------------------------------

  191    -867.3888924950      5.20E-09 Convergence criterion met
 Total energy in the final basis set = -867.3888924950
 Total job time:  224.01s(wall), 1961.90s(cpu)
        *  Thank you very much for using Q-Chem.  Have a nice day.  *
 Q-Chem 4.4, Q-Chem, Inc., Pleasanton, CA (2016)
 Q-Chem 4.4.1 for Intel X86 Linux

User input:
--------------------------------------------------------------

$comment
-----------------------

    3    -867.3888924950      7.53E-09 Convergence criterion met
 Total energy in the final basis set = -867.3888924950
   44    -867.4719136406      6.47E-09 Convergence criterion met
 Total energy in the final basis set = -867.4719136406
   48    -867.5191170591      5.89E-09 Convergence criterion met
 Total energy in the final basis set = -867.5191170591
   47    -867.5437585293      7.35E-09 Convergence criterion met
 Total energy in the final basis set = -867.5437585293
   48    -867.5528739660      4.46E-09 Convergence criterion met
 Total energy in the final basis set = -867.5528739660
   46    -867.5540962927      5.98E-09 Convergence criterion met
 Total energy in the final basis set = -867.5540962927
   43    -867.5543140306      5.66E-09 Convergence criterion met
   44    -867.5631401160      9.84E-09 Convergence criterion met
 Total energy in the final basis set = -867.5631401160
   40    -867.5631634503      9.74E-09 Convergence criterion met
 Total energy in the final basis set = -867.5631634503
   44    -867.5631743593      7.26E-09 Convergence criterion met
 Total energy in the final basis set = -867.5631743593
   42    -867.5631794599      7.47E-09 Convergence criterion met
 Total energy in the final basis set = -867.5631794599
   42    -867.5631833036      5.42E-09 Convergence criterion met
 Total energy in the final basis set = -867.5631833036
   42    -867.5631851127      2.43E-09 Convergence criterion met
 Total energy in the final basis set = -867.5631851127

             Standard Nuclear Orientation (Angstroms)
    I     Atom           X                Y                Z
 ----------------------------------------------------------------
    1      Zr     -1.6985362487    -0.1692221658     0.1074974606
    2      O      -2.4395465548    -0.1189026112    -1.5287106285
    3      O      -3.1030641273    -0.3159220415     1.4976829133
    4      S       0.0516763079     1.8976432254     0.0452890968
    5      O       0.1280272122    -1.2560904385     0.1277244282
    6      Zr      1.6697210261    -0.1791642063    -0.0463588494
    7      O       2.7899510650    -0.1363661245     1.6100790563
    8      O       2.6018613196    -0.2979556377    -1.8127534774
 ----------------------------------------------------------------

   38    -867.5631854632      8.96E-09 Convergence criterion met
 Total energy in the final basis set = -867.5631854632
 Final energy is   -867.563185463213
 **  OPTIMIZATION CONVERGED  **

                    Orbital Energies (a.u.)
 --------------------------------------------------------------

 Alpha MOs
 -- Occupied --
-88.935 -19.256 -19.254 -19.210 -19.202 -19.162  -8.010  -5.980
 -5.967  -5.966  -2.114  -2.071  -1.333  -1.323  -1.312  -1.294
 -1.278  -1.272  -0.999  -0.983  -0.953  -0.939  -0.884  -0.757
 -0.468  -0.462  -0.435  -0.424  -0.421  -0.418  -0.406  -0.404
 -0.393  -0.390  -0.375  -0.369  -0.366  -0.362  -0.350  -0.345
 -0.340  -0.331

 Beta MOs
 -- Occupied --
-88.930 -19.231 -19.229 -19.198 -19.187 -19.154  -8.005  -5.964
 -5.963  -5.963  -2.117  -2.075  -1.334  -1.324  -1.316  -1.296
 -1.280  -1.275  -0.944  -0.917  -0.908  -0.878  -0.861  -0.715
 -0.429  -0.412  -0.407  -0.394  -0.381  -0.365  -0.364  -0.356
 -0.351  -0.345  -0.339  -0.332  -0.319  -0.315

          Ground-State Mulliken Net Atomic Charges

     Atom                 Charge (a.u.)    Spin (a.u.)
  --------------------------------------------------------
      1 Zr                    1.381265      -0.192723
      2 O                    -0.518993       0.314579
      3 O                    -0.537643       0.913262
      4 S                     0.016321       0.977716
      5 O                    -0.802430       0.130918
      6 Zr                    1.410488      -0.153612
      7 O                    -0.474058       1.004310
      8 O                    -0.474951       1.005550
  --------------------------------------------------------
  Sum of atomic charges =     0.000000

                    Cartesian Multipole Moments
 -----------------------------------------------------------------
    Charge (ESU x 10^10)
                 0.0000
    Dipole Moment (Debye)
         X       3.3135      Y       0.6728      Z       1.2640
       Tot       3.6096
    Quadrupole Moments (Debye-Ang)
        XX     -99.8864     XY       0.0796     YY     -84.0601
        XZ      -1.4861     YZ       0.1121     ZZ     -98.2030

 Total job time:  1636.60s(wall), 16387.95s(cpu)
        *  Thank you very much for using Q-Chem.  Have a nice day.  *
