 Q-Chem 4.4, Q-Chem, Inc., Pleasanton, CA (2016)
 Q-Chem 4.4.1 for Intel X86 Linux

User input:
--------------------------------------------------------------
$comment
--------------------------------------------------------

   98    -918.1566016366      9.76E-09 Convergence criterion met
 Total energy in the final basis set = -918.1566016366
 Total job time:  48.43s(wall), 387.42s(cpu)
        *  Thank you very much for using Q-Chem.  Have a nice day.  *
 Q-Chem 4.4, Q-Chem, Inc., Pleasanton, CA (2016)
 Q-Chem 4.4.1 for Intel X86 Linux

User input:
--------------------------------------------------------------

$comment
-----------------------

    2    -918.1566016366      6.26E-09 Convergence criterion met
 Total energy in the final basis set = -918.1566016366
   25    -918.1852509111      9.74E-09 Convergence criterion met
 Total energy in the final basis set = -918.1852509111
   23    -918.2100939418      2.91E-09 Convergence criterion met
 Total energy in the final basis set = -918.2100939418
   23    -918.2154181768      6.61E-09 Convergence criterion met
 Total energy in the final basis set = -918.2154181768
   23    -918.2162292650      1.36E-09 Convergence criterion met
 Total energy in the final basis set = -918.2162292650
   19    -918.2163137349      6.46E-09 Convergence criterion met
 Total energy in the final basis set = -918.2163137349
   19    -918.2163875269      6.77E-09 Convergence criterion met
   22    -918.2166078944      5.57E-10 Convergence criterion met
 Total energy in the final basis set = -918.2166078944
   22    -918.2170026911      3.41E-09 Convergence criterion met
 Total energy in the final basis set = -918.2170026911
   20    -918.2175972807      6.94E-09 Convergence criterion met
 Total energy in the final basis set = -918.2175972807
   18    -918.2182483558      4.83E-09 Convergence criterion met
 Total energy in the final basis set = -918.2182483558
   21    -918.2187078702      7.80E-09 Convergence criterion met
 Total energy in the final basis set = -918.2187078702
   19    -918.2187598711      7.52E-09 Convergence criterion met
 Total energy in the final basis set = -918.2187598711

             Standard Nuclear Orientation (Angstroms)
    I     Atom           X                Y                Z
 ----------------------------------------------------------------
    1      Zr     -0.0006692546    -0.1924706149     0.0000000000
    2      O      -0.0011563283    -1.9558706689     0.0000000000
    3      S       2.2749206589     0.7881633205     0.0000000000
    4      S      -2.2743550760     0.7927479633     0.0000000000
 ----------------------------------------------------------------

   17    -918.2187602295      7.26E-09 Convergence criterion met
 Total energy in the final basis set = -918.2187602295
 Final energy is   -918.218760229542
 **  OPTIMIZATION CONVERGED  **

                    Orbital Energies (a.u.)
 --------------------------------------------------------------

 Alpha MOs
 -- Occupied --
-88.891 -88.891 -19.170  -7.967  -7.967  -5.938  -5.938  -5.923
 -5.923  -5.923  -5.923  -2.092  -1.314  -1.294  -1.285  -0.887
 -0.714  -0.706  -0.374  -0.371  -0.361  -0.344  -0.325  -0.321
 -0.308  -0.304  -0.294

 Beta MOs
 -- Occupied --
-88.886 -88.886 -19.166  -7.962  -7.962  -5.921  -5.921  -5.919
 -5.919  -5.919  -5.919  -2.094  -1.315  -1.296  -1.289  -0.879
 -0.670  -0.661  -0.358  -0.358  -0.355  -0.329  -0.296  -0.289
 -0.279

          Ground-State Mulliken Net Atomic Charges

     Atom                 Charge (a.u.)    Spin (a.u.)
  --------------------------------------------------------
      1 Zr                    0.879702      -0.116065
      2 O                    -0.560879       0.116117
      3 S                    -0.159356       0.999985
      4 S                    -0.159467       0.999963
  --------------------------------------------------------
  Sum of atomic charges =     0.000000

                    Cartesian Multipole Moments
 -----------------------------------------------------------------
    Charge (ESU x 10^10)
                 0.0000
    Dipole Moment (Debye)
         X       0.0001      Y       1.6755      Z       0.0000
       Tot       1.6755
    Quadrupole Moments (Debye-Ang)
        XX     -65.7276     XY       0.0122     YY     -61.5329
        XZ       0.0000     YZ       0.0000     ZZ     -51.2808

 Total job time:  154.70s(wall), 1242.14s(cpu)
        *  Thank you very much for using Q-Chem.  Have a nice day.  *
