 Q-Chem 4.4, Q-Chem, Inc., Pleasanton, CA (2016)
 Q-Chem 4.4.1 for Intel X86 Linux

User input:
--------------------------------------------------------------
$comment
--------------------------------------------------------

   69    -243.5062681485      6.67E-09 Convergence criterion met
 Total energy in the final basis set = -243.5062681485
 Total job time:  39.02s(wall), 258.45s(cpu)
        *  Thank you very much for using Q-Chem.  Have a nice day.  *
 Q-Chem 4.4, Q-Chem, Inc., Pleasanton, CA (2016)
 Q-Chem 4.4.1 for Intel X86 Linux

User input:
--------------------------------------------------------------

$comment
-----------------------

    3    -243.5062681485      2.91E-09 Convergence criterion met
 Total energy in the final basis set = -243.5062681485
   24    -243.5475791035      4.05E-09 Convergence criterion met
 Total energy in the final basis set = -243.5475791035
   28    -243.5711013845      4.98E-09 Convergence criterion met
 Total energy in the final basis set = -243.5711013845
   78    -243.5880121590      8.48E-09 Convergence criterion met
 Total energy in the final basis set = -243.5880121590
   35    -243.5973317108      2.89E-09 Convergence criterion met
 Total energy in the final basis set = -243.5973317108
   51    -243.6127501543      6.00E-09 Convergence criterion met
 Total energy in the final basis set = -243.6127501543
   59    -243.6188348224      6.21E-09 Convergence criterion met
   28    -243.6502139778      3.51E-09 Convergence criterion met
 Total energy in the final basis set = -243.6502139778
   28    -243.6505220046      3.53E-09 Convergence criterion met
 Total energy in the final basis set = -243.6505220046
   25    -243.6506420180      7.81E-09 Convergence criterion met
 Total energy in the final basis set = -243.6506420180
   26    -243.6506974955      5.20E-09 Convergence criterion met
 Total energy in the final basis set = -243.6506974955
   24    -243.6507005479      8.40E-09 Convergence criterion met
 Total energy in the final basis set = -243.6507005479
   24    -243.6507019512      5.90E-09 Convergence criterion met
 Total energy in the final basis set = -243.6507019512

             Standard Nuclear Orientation (Angstroms)
    I     Atom           X                Y                Z
 ----------------------------------------------------------------
    1      Zr     -0.8903903978    -0.9901610663    -0.2658076582
    2      Zr      0.8888171398     0.9889754624    -0.2765116930
    3      O      -1.0186194997     0.9185014975     0.2733983683
    4      O       1.0213627577    -0.9165258936     0.2699609829
 ----------------------------------------------------------------

   21    -243.6507023080      5.69E-09 Convergence criterion met
 Total energy in the final basis set = -243.6507023080
 Final energy is   -243.650702307983
 **  OPTIMIZATION CONVERGED  **

                    Orbital Energies (a.u.)
 --------------------------------------------------------------

 Alpha MOs
 -- Occupied --
-19.143 -19.143  -2.043  -2.034  -1.283  -1.256  -1.236  -1.235
 -1.233  -1.215  -0.887  -0.880  -0.360  -0.355  -0.354  -0.350
 -0.342  -0.314  -0.185  -0.157  -0.145

 Beta MOs
 -- Occupied --
-19.143 -19.143  -2.029  -2.021  -1.267  -1.245  -1.224  -1.217
 -1.215  -1.199  -0.886  -0.879  -0.358  -0.353  -0.353  -0.344
 -0.334  -0.315  -0.167

          Ground-State Mulliken Net Atomic Charges

     Atom                 Charge (a.u.)    Spin (a.u.)
  --------------------------------------------------------
      1 Zr                    0.859467       0.958954
      2 Zr                    0.859331       0.956728
      3 O                    -0.859397       0.042133
      4 O                    -0.859401       0.042185
  --------------------------------------------------------
  Sum of atomic charges =     0.000000

                    Cartesian Multipole Moments
 -----------------------------------------------------------------
    Charge (ESU x 10^10)
                 0.0000
    Dipole Moment (Debye)
         X      -0.0025      Y      -0.0038      Z      -0.4021
       Tot       0.4021
    Quadrupole Moments (Debye-Ang)
        XX     -54.8675     XY       8.8448     YY     -52.9898
        XZ      -0.0488     YZ      -0.0542     ZZ     -63.3581

 Total job time:  449.74s(wall), 3427.54s(cpu)
        *  Thank you very much for using Q-Chem.  Have a nice day.  *
