 Q-Chem 4.4, Q-Chem, Inc., Pleasanton, CA (2016)
 Q-Chem 4.4.1 for Intel X86 Linux

User input:
--------------------------------------------------------------
$comment
--------------------------------------------------------

   55    -641.6244502158      8.02E-09 Convergence criterion met
 Total energy in the final basis set = -641.6244502158
 Total job time:  18.94s(wall), 207.73s(cpu)
        *  Thank you very much for using Q-Chem.  Have a nice day.  *
 Q-Chem 4.4, Q-Chem, Inc., Pleasanton, CA (2016)
 Q-Chem 4.4.1 for Intel X86 Linux

User input:
--------------------------------------------------------------

$comment
-----------------------

    3    -641.6244502158      2.56E-09 Convergence criterion met
 Total energy in the final basis set = -641.6244502158
   28    -641.6532314306      9.33E-09 Convergence criterion met
 Total energy in the final basis set = -641.6532314306
   30    -641.6812099693      2.07E-09 Convergence criterion met
 Total energy in the final basis set = -641.6812099693
   30    -641.6927667504      6.39E-09 Convergence criterion met
 Total energy in the final basis set = -641.6927667504
   27    -641.7107758477      9.82E-09 Convergence criterion met
 Total energy in the final basis set = -641.7107758477
   31    -641.7167375019      9.95E-09 Convergence criterion met
 Total energy in the final basis set = -641.7167375019
   27    -641.7211148905      7.76E-09 Convergence criterion met
   25    -641.7754604234      3.00E-09 Convergence criterion met
 Total energy in the final basis set = -641.7754604234
   27    -641.7835839420      8.42E-09 Convergence criterion met
 Total energy in the final basis set = -641.7835839420
   24    -641.7823345168      4.83E-09 Convergence criterion met
 Total energy in the final basis set = -641.7823345168
   25    -641.7847931357      8.98E-10 Convergence criterion met
 Total energy in the final basis set = -641.7847931357
   24    -641.7848372956      9.63E-09 Convergence criterion met
 Total energy in the final basis set = -641.7848372956
   20    -641.7849146983      4.81E-09 Convergence criterion met
 Total energy in the final basis set = -641.7849146983

             Standard Nuclear Orientation (Angstroms)
    I     Atom           X                Y                Z
 ----------------------------------------------------------------
    1      Zr     -0.3874726308     0.7080938489     0.5978383640
    2      Zr      1.0954846015    -0.7001058453    -0.8569627164
    3      O       1.5271763717    -0.1544730301     1.2215011646
    4      S      -1.0867279775    -1.5471046539    -0.0988730607
    5      O       1.7505096351     1.0015996804     0.3287562485
 ----------------------------------------------------------------

   20    -641.7849164221      1.69E-09 Convergence criterion met
 Total energy in the final basis set = -641.7849164221
 Final energy is   -641.784916422124
 **  OPTIMIZATION CONVERGED  **

                    Orbital Energies (a.u.)
 --------------------------------------------------------------

 Alpha MOs
 -- Occupied --
-88.809 -19.209 -19.208  -7.887  -5.847  -5.847  -5.846  -2.024
 -2.011  -1.268  -1.235  -1.220  -1.217  -1.210  -1.178  -1.059
 -0.825  -0.637  -0.444  -0.431  -0.428  -0.310  -0.302  -0.279
 -0.263  -0.249  -0.184  -0.158

          Ground-State Mulliken Net Atomic Charges

     Atom                 Charge (a.u.)
  ----------------------------------------
      1 Zr                    0.658107
      2 Zr                    0.657905
      3 O                    -0.394371
      4 S                    -0.460958
      5 O                    -0.460683
  ----------------------------------------
  Sum of atomic charges =     0.000000

                    Cartesian Multipole Moments
 -----------------------------------------------------------------
    Charge (ESU x 10^10)
                 0.0000
    Dipole Moment (Debye)
         X       0.7231      Y       2.5252      Z      -1.7031
       Tot       3.1305
    Quadrupole Moments (Debye-Ang)
        XX     -70.3322     XY     -10.5246     YY     -69.5947
        XZ     -10.2515     YZ       6.3789     ZZ     -66.4381

 Total job time:  255.91s(wall), 2591.42s(cpu)
        *  Thank you very much for using Q-Chem.  Have a nice day.  *
