 Q-Chem 4.4, Q-Chem, Inc., Pleasanton, CA (2016)
 Q-Chem 4.4.1 for Intel X86 Linux

User input:
--------------------------------------------------------------
$comment
--------------------------------------------------------

   83    -641.6766014605      6.55E-09 Convergence criterion met
 Total energy in the final basis set = -641.6766014605
 Total job time:  58.01s(wall), 445.56s(cpu)
        *  Thank you very much for using Q-Chem.  Have a nice day.  *
 Q-Chem 4.4, Q-Chem, Inc., Pleasanton, CA (2016)
 Q-Chem 4.4.1 for Intel X86 Linux

User input:
--------------------------------------------------------------

$comment
-----------------------

    3    -641.6766014605      4.04E-09 Convergence criterion met
 Total energy in the final basis set = -641.6766014605
   36    -641.7238686183      6.34E-09 Convergence criterion met
 Total energy in the final basis set = -641.7238686183
   33    -641.7581237662      6.18E-09 Convergence criterion met
 Total energy in the final basis set = -641.7581237662
   31    -641.7817891813      4.19E-09 Convergence criterion met
 Total energy in the final basis set = -641.7817891813
   32    -641.7960655304      8.88E-09 Convergence criterion met
 Total energy in the final basis set = -641.7960655304
   34    -641.8040834008      8.16E-09 Convergence criterion met
 Total energy in the final basis set = -641.8040834008
   36    -641.8080694821      3.18E-09 Convergence criterion met
   31    -641.8129036189      4.49E-09 Convergence criterion met
 Total energy in the final basis set = -641.8129036189
   31    -641.8130374148      5.45E-09 Convergence criterion met
 Total energy in the final basis set = -641.8130374148
   31    -641.8130833973      2.52E-09 Convergence criterion met
 Total energy in the final basis set = -641.8130833973
   28    -641.8130961983      2.02E-09 Convergence criterion met
 Total energy in the final basis set = -641.8130961983
   28    -641.8131024897      5.74E-09 Convergence criterion met
 Total energy in the final basis set = -641.8131024897
   26    -641.8131036266      4.83E-09 Convergence criterion met
 Total energy in the final basis set = -641.8131036266

             Standard Nuclear Orientation (Angstroms)
    I     Atom           X                Y                Z
 ----------------------------------------------------------------
    1      Zr     -1.8231909636     0.4783840673     0.4487893028
    2      Zr      0.6612644509    -0.7172174484    -0.2403855243
    3      O       2.0461084804    -0.4259083335     1.1174578377
    4      O      -1.3243850397    -1.2902809696    -0.0018488217
    5      S       2.5261930720     0.8408426842    -0.0061127944
 ----------------------------------------------------------------

   24    -641.8131040910      9.44E-09 Convergence criterion met
 Total energy in the final basis set = -641.8131040910
 Final energy is   -641.813104090960
 **  OPTIMIZATION CONVERGED  **

                    Orbital Energies (a.u.)
 --------------------------------------------------------------

 Alpha MOs
 -- Occupied --
-88.868 -19.166 -19.151  -7.940  -5.907  -5.897  -5.895  -2.048
 -2.039  -1.275  -1.259  -1.247  -1.244  -1.238  -1.225  -0.949
 -0.889  -0.641  -0.392  -0.385  -0.369  -0.359  -0.349  -0.337
 -0.257  -0.222  -0.203  -0.171  -0.168

 Beta MOs
 -- Occupied --
-88.868 -19.165 -19.151  -7.940  -5.907  -5.897  -5.895  -2.042
 -2.011  -1.269  -1.251  -1.239  -1.228  -1.193  -1.192  -0.947
 -0.890  -0.640  -0.392  -0.384  -0.366  -0.359  -0.347  -0.336
 -0.257  -0.216  -0.184

          Ground-State Mulliken Net Atomic Charges

     Atom                 Charge (a.u.)    Spin (a.u.)
  --------------------------------------------------------
      1 Zr                    0.566653       1.690560
      2 Zr                    1.033802       0.265294
      3 O                    -0.660819       0.047065
      4 O                    -0.877505      -0.010633
      5 S                    -0.062130       0.007715
  --------------------------------------------------------
  Sum of atomic charges =     0.000000

                    Cartesian Multipole Moments
 -----------------------------------------------------------------
    Charge (ESU x 10^10)
                 0.0000
    Dipole Moment (Debye)
         X      -4.5611      Y       0.6606      Z      -1.4521
       Tot       4.8320
    Quadrupole Moments (Debye-Ang)
        XX     -76.4378     XY      -9.5841     YY     -66.8040
        XZ      -7.9125     YZ       2.9538     ZZ     -70.0892

 Total job time:  460.84s(wall), 3487.91s(cpu)
        *  Thank you very much for using Q-Chem.  Have a nice day.  *
