 Q-Chem 4.4, Q-Chem, Inc., Pleasanton, CA (2016)
 Q-Chem 4.4.1 for Intel X86 Linux

User input:
--------------------------------------------------------------
$comment
--------------------------------------------------------

   76    -318.6477267676      4.27E-09 Convergence criterion met
 Total energy in the final basis set = -318.6477267676
 Total job time:  46.27s(wall), 325.43s(cpu)
        *  Thank you very much for using Q-Chem.  Have a nice day.  *
 Q-Chem 4.4, Q-Chem, Inc., Pleasanton, CA (2016)
 Q-Chem 4.4.1 for Intel X86 Linux

User input:
--------------------------------------------------------------

$comment
-----------------------

    2    -318.6477267676      4.65E-09 Convergence criterion met
 Total energy in the final basis set = -318.6477267676
   37    -318.6978113297      6.97E-09 Convergence criterion met
 Total energy in the final basis set = -318.6978113297
   33    -318.7344209488      2.91E-09 Convergence criterion met
 Total energy in the final basis set = -318.7344209488
   32    -318.7578104324      5.91E-09 Convergence criterion met
 Total energy in the final basis set = -318.7578104324
   32    -318.7707923328      7.30E-09 Convergence criterion met
 Total energy in the final basis set = -318.7707923328
   32    -318.7770170028      8.96E-09 Convergence criterion met
 Total energy in the final basis set = -318.7770170028
   36    -318.7792029852      6.30E-09 Convergence criterion met
   32    -318.7808165229      4.02E-09 Convergence criterion met
 Total energy in the final basis set = -318.7808165229
   30    -318.7808872130      8.43E-09 Convergence criterion met
 Total energy in the final basis set = -318.7808872130
   29    -318.7809122709      4.93E-09 Convergence criterion met
 Total energy in the final basis set = -318.7809122709
   28    -318.7809344428      6.45E-09 Convergence criterion met
 Total energy in the final basis set = -318.7809344428
   28    -318.7809442818      6.56E-09 Convergence criterion met
 Total energy in the final basis set = -318.7809442818
   26    -318.7809460078      8.94E-09 Convergence criterion met
 Total energy in the final basis set = -318.7809460078

             Standard Nuclear Orientation (Angstroms)
    I     Atom           X                Y                Z
 ----------------------------------------------------------------
    1      Zr     -1.7217431637     0.2425581476     0.4482795270
    2      Zr      0.9537658686    -0.4894240790    -0.2051905248
    3      O       2.2876127581    -0.0234300372     1.1694302193
    4      O      -0.9700554233    -1.3495047465    -0.2208367445
    5      O       2.2480999603     1.0095007151     0.0936675230
 ----------------------------------------------------------------

   26    -318.7809465778      6.40E-09 Convergence criterion met
 Total energy in the final basis set = -318.7809465778
 Final energy is   -318.780946577825
 **  OPTIMIZATION CONVERGED  **

                    Orbital Energies (a.u.)
 --------------------------------------------------------------

 Alpha MOs
 -- Occupied --
-19.181 -19.174 -19.149  -2.049  -2.039  -1.281  -1.262  -1.252
 -1.245  -1.238  -1.227  -1.015  -0.888  -0.797  -0.417  -0.400
 -0.388  -0.356  -0.350  -0.342  -0.287  -0.245  -0.204  -0.171
 -0.169

 Beta MOs
 -- Occupied --
-19.180 -19.174 -19.150  -2.043  -2.012  -1.277  -1.251  -1.243
 -1.229  -1.193  -1.193  -1.013  -0.889  -0.795  -0.416  -0.398
 -0.385  -0.355  -0.348  -0.341  -0.286  -0.239  -0.184

          Ground-State Mulliken Net Atomic Charges

     Atom                 Charge (a.u.)    Spin (a.u.)
  --------------------------------------------------------
      1 Zr                    0.513250       1.647565
      2 Zr                    1.257626       0.302725
      3 O                    -0.443151       0.054632
      4 O                    -0.853250      -0.008211
      5 O                    -0.474474       0.003289
  --------------------------------------------------------
  Sum of atomic charges =     0.000000

                    Cartesian Multipole Moments
 -----------------------------------------------------------------
    Charge (ESU x 10^10)
                 0.0000
    Dipole Moment (Debye)
         X      -4.5194      Y      -0.5183      Z      -1.3383
       Tot       4.7418
    Quadrupole Moments (Debye-Ang)
        XX     -66.6990     XY     -12.2357     YY     -62.5292
        XZ      -9.9116     YZ       0.9054     ZZ     -61.3237

 Total job time:  457.33s(wall), 3433.64s(cpu)
        *  Thank you very much for using Q-Chem.  Have a nice day.  *
