 Q-Chem 4.4, Q-Chem, Inc., Pleasanton, CA (2016)
 Q-Chem 4.4.1 for Intel X86 Linux

User input:
--------------------------------------------------------------
$comment
--------------------------------------------------------

  118    -792.3156186582      6.44E-09 Convergence criterion met
 Total energy in the final basis set = -792.3156186582
 Total job time:  98.41s(wall), 772.12s(cpu)
        *  Thank you very much for using Q-Chem.  Have a nice day.  *
 Q-Chem 4.4, Q-Chem, Inc., Pleasanton, CA (2016)
 Q-Chem 4.4.1 for Intel X86 Linux

User input:
--------------------------------------------------------------

$comment
-----------------------

    3    -792.3156186582      5.50E-09 Convergence criterion met
 Total energy in the final basis set = -792.3156186582
   29    -792.3594137797      6.77E-09 Convergence criterion met
 Total energy in the final basis set = -792.3594137797
   35    -792.3791303108      7.96E-09 Convergence criterion met
 Total energy in the final basis set = -792.3791303108
   37    -792.3877061245      6.96E-09 Convergence criterion met
 Total energy in the final basis set = -792.3877061245
   34    -792.3919760054      2.54E-09 Convergence criterion met
 Total energy in the final basis set = -792.3919760054
   35    -792.3959479531      8.93E-09 Convergence criterion met
 Total energy in the final basis set = -792.3959479531
   31    -792.3953823705      4.30E-09 Convergence criterion met
   20    -792.4911446704      1.41E-09 Convergence criterion met
 Total energy in the final basis set = -792.4911446704
   19    -792.4911768153      8.18E-09 Convergence criterion met
 Total energy in the final basis set = -792.4911768153
   20    -792.4912234730      4.41E-09 Convergence criterion met
 Total energy in the final basis set = -792.4912234730
   20    -792.4912733160      6.83E-09 Convergence criterion met
 Total energy in the final basis set = -792.4912733160
   20    -792.4913014712      6.14E-09 Convergence criterion met
 Total energy in the final basis set = -792.4913014712
   20    -792.4913090204      2.98E-09 Convergence criterion met
 Total energy in the final basis set = -792.4913090204

             Standard Nuclear Orientation (Angstroms)
    I     Atom           X                Y                Z
 ----------------------------------------------------------------
    1      Zr      1.5451234133    -0.1803510314     0.3295718614
    2      Zr     -1.5451047413    -0.1803733359     0.3295790668
    3      S      -0.0000033645    -2.0637569139    -0.9528313231
    4      O       0.0000221452     0.3754435856     1.4814380129
    5      O      -0.0000199994    -0.2916591776    -1.1551679422
    6      O      -2.7871834283     1.0452193431    -0.0162888953
    7      O       2.7872159751     1.0452375301    -0.0162707804
 ----------------------------------------------------------------

   19    -792.4913099827      5.14E-09 Convergence criterion met
 Total energy in the final basis set = -792.4913099827
 Final energy is   -792.491309982672
 **  OPTIMIZATION CONVERGED  **

                    Orbital Energies (a.u.)
 --------------------------------------------------------------

 Alpha MOs
 -- Occupied --
-88.916 -19.225 -19.158 -19.127 -19.127  -7.986  -5.954  -5.943
 -5.941  -2.076  -2.074  -1.306  -1.289  -1.285  -1.283  -1.276
 -1.272  -1.014  -0.910  -0.850  -0.849  -0.693  -0.445  -0.444
 -0.437  -0.387  -0.375  -0.365  -0.330  -0.325  -0.321  -0.318
 -0.314  -0.289  -0.283  -0.272

          Ground-State Mulliken Net Atomic Charges

     Atom                 Charge (a.u.)
  ----------------------------------------
      1 Zr                    1.476136
      2 Zr                    1.476145
      3 S                    -0.013317
      4 O                    -0.996819
      5 O                    -0.812681
      6 O                    -0.564730
      7 O                    -0.564735
  ----------------------------------------
  Sum of atomic charges =     0.000000

                    Cartesian Multipole Moments
 -----------------------------------------------------------------
    Charge (ESU x 10^10)
                 0.0000
    Dipole Moment (Debye)
         X       0.0000      Y      -7.2980      Z       3.3874
       Tot       8.0459
    Quadrupole Moments (Debye-Ang)
        XX     -84.9635     XY      -0.0001     YY     -82.8418
        XZ      -0.0004     YZ      -6.3222     ZZ     -79.7042

 Total job time:  1045.94s(wall), 8812.27s(cpu)
        *  Thank you very much for using Q-Chem.  Have a nice day.  *
