 Q-Chem 4.4, Q-Chem, Inc., Pleasanton, CA (2016)
 Q-Chem 4.4.1 for Intel X86 Linux

User input:
--------------------------------------------------------------
$comment
--------------------------------------------------------

  138    -792.3374675650      8.45E-09 Convergence criterion met
 Total energy in the final basis set = -792.3374675650
 Total job time:  150.75s(wall), 1228.36s(cpu)
        *  Thank you very much for using Q-Chem.  Have a nice day.  *
 Q-Chem 4.4, Q-Chem, Inc., Pleasanton, CA (2016)
 Q-Chem 4.4.1 for Intel X86 Linux

User input:
--------------------------------------------------------------

$comment
-----------------------

    2    -792.3374675650      5.85E-09 Convergence criterion met
 Total energy in the final basis set = -792.3374675650
   95    -792.3886334371      3.25E-09 Convergence criterion met
 Total energy in the final basis set = -792.3886334371
   51    -792.4179421739      9.20E-09 Convergence criterion met
 Total energy in the final basis set = -792.4179421739
   41    -792.4308611878      3.10E-09 Convergence criterion met
 Total energy in the final basis set = -792.4308611878
   41    -792.4339569234      4.82E-09 Convergence criterion met
 Total energy in the final basis set = -792.4339569234
   39    -792.4351914342      4.45E-09 Convergence criterion met
 Total energy in the final basis set = -792.4351914342
   36    -792.4368797456      8.42E-09 Convergence criterion met
   35    -792.4431755819      8.06E-09 Convergence criterion met
 Total energy in the final basis set = -792.4431755819
   34    -792.4431929949      7.92E-09 Convergence criterion met
 Total energy in the final basis set = -792.4431929949
   30    -792.4432017654      8.36E-09 Convergence criterion met
 Total energy in the final basis set = -792.4432017654
   33    -792.4432056895      7.02E-09 Convergence criterion met
 Total energy in the final basis set = -792.4432056895
   33    -792.4432124537      8.96E-09 Convergence criterion met
 Total energy in the final basis set = -792.4432124537
   35    -792.4432187565      5.62E-09 Convergence criterion met
 Total energy in the final basis set = -792.4432187565

             Standard Nuclear Orientation (Angstroms)
    I     Atom           X                Y                Z
 ----------------------------------------------------------------
    1      Zr      0.9508367383     0.1988192341     0.4952184054
    2      Zr     -1.6819228623    -0.4079038836    -0.4734993773
    3      O       0.0562693684     0.4367746428    -1.2643282259
    4      O      -0.2778486035    -1.2932325668     0.7426816582
    5      O      -0.5822780878     1.4672947144     0.7904949484
    6      O      -2.5584086241    -1.4788615955    -1.5924813978
    7      S       3.3385520710     0.4860094547     1.3098239889
 ----------------------------------------------------------------

   29    -792.4432193338      9.03E-09 Convergence criterion met
 Total energy in the final basis set = -792.4432193338
 Final energy is   -792.443219333844
 **  OPTIMIZATION CONVERGED  **

                    Orbital Energies (a.u.)
 --------------------------------------------------------------

 Alpha MOs
 -- Occupied --
-88.879 -19.214 -19.201 -19.177 -19.133  -7.954  -5.925  -5.910
 -5.909  -2.099  -2.084  -1.325  -1.307  -1.302  -1.293  -1.284
 -1.282  -0.959  -0.947  -0.925  -0.856  -0.699  -0.451  -0.418
 -0.410  -0.406  -0.401  -0.386  -0.374  -0.363  -0.344  -0.324
 -0.321  -0.317  -0.313  -0.303  -0.284

 Beta MOs
 -- Occupied --
-88.874 -19.195 -19.191 -19.176 -19.133  -7.949  -5.909  -5.907
 -5.906  -2.101  -2.085  -1.326  -1.309  -1.305  -1.294  -1.285
 -1.283  -0.925  -0.921  -0.900  -0.854  -0.655  -0.414  -0.403
 -0.399  -0.394  -0.383  -0.370  -0.351  -0.342  -0.318  -0.316
 -0.308  -0.291  -0.269

          Ground-State Mulliken Net Atomic Charges

     Atom                 Charge (a.u.)    Spin (a.u.)
  --------------------------------------------------------
      1 Zr                    1.379346      -0.115369
      2 Zr                    1.666525      -0.043520
      3 O                    -0.875307       0.362271
      4 O                    -0.938519       0.044072
      5 O                    -0.583598       0.749822
      6 O                    -0.556414       0.011928
      7 S                    -0.092032       0.990794
  --------------------------------------------------------
  Sum of atomic charges =     0.000000

                    Cartesian Multipole Moments
 -----------------------------------------------------------------
    Charge (ESU x 10^10)
                 0.0000
    Dipole Moment (Debye)
         X      -1.8722      Y       1.8250      Z       2.0806
       Tot       3.3414
    Quadrupole Moments (Debye-Ang)
        XX     -82.9530     XY      -8.5049     YY     -88.3204
        XZ     -10.3912     YZ      -6.2680     ZZ     -87.0260

 Total job time:  2330.00s(wall), 22835.52s(cpu)
        *  Thank you very much for using Q-Chem.  Have a nice day.  *
