 Q-Chem 4.4, Q-Chem, Inc., Pleasanton, CA (2016)
 Q-Chem 4.4.1 for Intel X86 Linux

User input:
--------------------------------------------------------------
$comment
--------------------------------------------------------

  103    -469.3169304723      4.18E-10 Convergence criterion met
 Total energy in the final basis set = -469.3169304723
 Total job time:  87.77s(wall), 619.47s(cpu)
        *  Thank you very much for using Q-Chem.  Have a nice day.  *
 Q-Chem 4.4, Q-Chem, Inc., Pleasanton, CA (2016)
 Q-Chem 4.4.1 for Intel X86 Linux

User input:
--------------------------------------------------------------

$comment
-----------------------

    2    -469.3169304723      4.31E-09 Convergence criterion met
 Total energy in the final basis set = -469.3169304723
   36    -469.3596636569      4.70E-10 Convergence criterion met
 Total energy in the final basis set = -469.3596636569
   38    -469.3767595822      5.99E-09 Convergence criterion met
 Total energy in the final basis set = -469.3767595822
   40    -469.3816619822      7.18E-09 Convergence criterion met
 Total energy in the final basis set = -469.3816619822
   40    -469.3831110502      8.61E-09 Convergence criterion met
 Total energy in the final basis set = -469.3831110502
   43    -469.3843347245      4.37E-09 Convergence criterion met
 Total energy in the final basis set = -469.3843347245
   38    -469.3851663544      9.28E-09 Convergence criterion met
   19    -469.4591233980      8.23E-09 Convergence criterion met
 Total energy in the final basis set = -469.4591233980
   20    -469.4591863419      7.44E-09 Convergence criterion met
 Total energy in the final basis set = -469.4591863419
   18    -469.4591964298      1.41E-09 Convergence criterion met
 Total energy in the final basis set = -469.4591964298
   20    -469.4592264058      7.52E-09 Convergence criterion met
 Total energy in the final basis set = -469.4592264058
   19    -469.4592351182      8.34E-09 Convergence criterion met
 Total energy in the final basis set = -469.4592351182
   19    -469.4592380587      9.77E-09 Convergence criterion met
 Total energy in the final basis set = -469.4592380587

             Standard Nuclear Orientation (Angstroms)
    I     Atom           X                Y                Z
 ----------------------------------------------------------------
    1      Zr     -1.5220594885     0.2656611312     0.3871229805
    2      Zr      1.5220605858     0.2657608085     0.3873615610
    3      O      -0.0000966743    -0.9150013652     1.6481763368
    4      O       0.0000670677    -1.2129373392     0.1735633801
    5      O       0.0000089278     1.5100883526    -0.0400075409
    6      O       2.8162116109     0.0336383427    -0.8201346448
    7      O      -2.8164320295     0.0337000694    -0.8201820728
 ----------------------------------------------------------------

   18    -469.4592384561      3.71E-09 Convergence criterion met
 Total energy in the final basis set = -469.4592384561
 Final energy is   -469.459238456140
 **  OPTIMIZATION CONVERGED  **

                    Orbital Energies (a.u.)
 --------------------------------------------------------------

 Alpha MOs
 -- Occupied --
-19.244 -19.220 -19.155 -19.120 -19.120  -2.074  -2.072  -1.309
 -1.285  -1.284  -1.281  -1.273  -1.270  -1.082  -0.907  -0.859
 -0.845  -0.840  -0.469  -0.463  -0.456  -0.382  -0.374  -0.367
 -0.349  -0.326  -0.317  -0.312  -0.310  -0.291  -0.290  -0.283

          Ground-State Mulliken Net Atomic Charges

     Atom                 Charge (a.u.)
  ----------------------------------------
      1 Zr                    1.608826
      2 Zr                    1.608823
      3 O                    -0.495216
      4 O                    -0.563950
      5 O                    -1.014271
      6 O                    -0.572100
      7 O                    -0.572112
  ----------------------------------------
  Sum of atomic charges =     0.000000

                    Cartesian Multipole Moments
 -----------------------------------------------------------------
    Charge (ESU x 10^10)
                 0.0000
    Dipole Moment (Debye)
         X       0.0011      Y       2.4924      Z       8.2259
       Tot       8.5952
    Quadrupole Moments (Debye-Ang)
        XX     -78.8244     XY       0.0018     YY     -73.3713
        XZ       0.0021     YZ       6.7428     ZZ     -68.6897

 Total job time:  830.72s(wall), 7070.58s(cpu)
        *  Thank you very much for using Q-Chem.  Have a nice day.  *
