 Q-Chem 4.4, Q-Chem, Inc., Pleasanton, CA (2016)
 Q-Chem 4.4.1 for Intel X86 Linux

User input:
--------------------------------------------------------------
$comment
--------------------------------------------------------

   45    -168.0905947141      6.02E-09 Convergence criterion met
 Total energy in the final basis set = -168.0905947141
 Total job time:  25.26s(wall), 133.71s(cpu)
        *  Thank you very much for using Q-Chem.  Have a nice day.  *
 Q-Chem 4.4, Q-Chem, Inc., Pleasanton, CA (2016)
 Q-Chem 4.4.1 for Intel X86 Linux

User input:
--------------------------------------------------------------

$comment
-----------------------

    2    -168.0905947141      7.00E-09 Convergence criterion met
 Total energy in the final basis set = -168.0905947141
   30    -168.1675917348      1.71E-09 Convergence criterion met
 Total energy in the final basis set = -168.1675917348
   28    -168.1872970041      5.44E-09 Convergence criterion met
 Total energy in the final basis set = -168.1872970041
   69    -168.2002136011      8.97E-10 Convergence criterion met
 Total energy in the final basis set = -168.2002136011
   26    -168.2121608089      6.17E-09 Convergence criterion met
 Total energy in the final basis set = -168.2121608089
   22    -168.2216224849      5.93E-09 Convergence criterion met
 Total energy in the final basis set = -168.2216224849
   24    -168.2258925843      9.35E-09 Convergence criterion met
 Total energy in the final basis set = -168.2258925843
   23    -168.2262919556      6.67E-09 Convergence criterion met
 Total energy in the final basis set = -168.2262919556

             Standard Nuclear Orientation (Angstroms)
    I     Atom           X                Y                Z
 ----------------------------------------------------------------
    1      Zr      1.1008218065     0.0005633204     0.0000000000
    2      Zr     -1.9336938560    -0.0002367728     0.0000000000
    3      O       2.8719520495    -0.0010865476     0.0000000000
 ----------------------------------------------------------------

   20    -168.2263169305      7.96E-09 Convergence criterion met
 Total energy in the final basis set = -168.2263169305
 Final energy is   -168.226316930519
 **  OPTIMIZATION CONVERGED  **

                    Orbital Energies (a.u.)
 --------------------------------------------------------------

 Alpha MOs
 -- Occupied --
-19.112  -2.029  -2.026  -1.253  -1.231  -1.231  -1.230  -1.227
 -1.227  -0.830  -0.309  -0.306  -0.306  -0.205  -0.179  -0.179
 -0.170  -0.167

 Beta MOs
 -- Occupied --
-19.112  -2.003  -1.979  -1.241  -1.192  -1.192  -1.176  -1.170
 -1.170  -0.830  -0.308  -0.302  -0.302  -0.177

          Ground-State Mulliken Net Atomic Charges

     Atom                 Charge (a.u.)    Spin (a.u.)
  --------------------------------------------------------
      1 Zr                    0.666821       1.299406
      2 Zr                   -0.003903       2.704156
      3 O                    -0.662918      -0.003561
  --------------------------------------------------------
  Sum of atomic charges =     0.000000

                    Cartesian Multipole Moments
 -----------------------------------------------------------------
    Charge (ESU x 10^10)
                 0.0000
    Dipole Moment (Debye)
         X      -5.4823      Y       0.0047      Z       0.0000
       Tot       5.4823
    Quadrupole Moments (Debye-Ang)
        XX     -62.3998     XY       0.0150     YY     -52.9805
        XZ       0.0000     YZ       0.0000     ZZ     -52.9805

 Total job time:  145.93s(wall), 780.74s(cpu)
        *  Thank you very much for using Q-Chem.  Have a nice day.  *
