 Q-Chem 4.4, Q-Chem, Inc., Pleasanton, CA (2016)
 Q-Chem 4.4.1 for Intel X86 Linux

User input:
--------------------------------------------------------------
$comment
--------------------------------------------------------

   42    -168.2025792381      4.49E-09 Convergence criterion met
 Total energy in the final basis set = -168.2025792381
 Total job time:  19.78s(wall), 109.72s(cpu)
        *  Thank you very much for using Q-Chem.  Have a nice day.  *
 Q-Chem 4.4, Q-Chem, Inc., Pleasanton, CA (2016)
 Q-Chem 4.4.1 for Intel X86 Linux

User input:
--------------------------------------------------------------

$comment
-----------------------

    2    -168.2025792381      7.11E-09 Convergence criterion met
 Total energy in the final basis set = -168.2025792381
   27    -168.2550428414      4.72E-09 Convergence criterion met
 Total energy in the final basis set = -168.2550428414
   21    -168.2820319996      6.83E-09 Convergence criterion met
 Total energy in the final basis set = -168.2820319996
   22    -168.2922031498      5.94E-09 Convergence criterion met
 Total energy in the final basis set = -168.2922031498
   21    -168.2951240323      7.02E-09 Convergence criterion met
 Total energy in the final basis set = -168.2951240323
   22    -168.2954406325      9.30E-10 Convergence criterion met
 Total energy in the final basis set = -168.2954406325
   20    -168.2955181488      3.63E-09 Convergence criterion met
 Total energy in the final basis set = -168.2955181488
   20    -168.2955357622      1.34E-09 Convergence criterion met
 Total energy in the final basis set = -168.2955357622

             Standard Nuclear Orientation (Angstroms)
    I     Atom           X                Y                Z
 ----------------------------------------------------------------
    1      Zr      1.2546364155     0.3619964303     0.0000000000
    2      Zr     -1.1398668989    -0.1631073355     0.0000000000
    3      O       0.3935004835    -1.4368990948     0.0000000000
 ----------------------------------------------------------------

   17    -168.2955377551      7.94E-09 Convergence criterion met
 Total energy in the final basis set = -168.2955377551
 Final energy is   -168.295537755133
 **  OPTIMIZATION CONVERGED  **

                    Orbital Energies (a.u.)
 --------------------------------------------------------------

 Alpha MOs
 -- Occupied --
-19.124  -1.999  -1.983  -1.239  -1.204  -1.198  -1.194  -1.185
 -1.140  -0.861  -0.327  -0.323  -0.315  -0.171  -0.155  -0.146

          Ground-State Mulliken Net Atomic Charges

     Atom                 Charge (a.u.)
  ----------------------------------------
      1 Zr                    0.409070
      2 Zr                    0.409628
      3 O                    -0.818698
  ----------------------------------------
  Sum of atomic charges =     0.000000

                    Cartesian Multipole Moments
 -----------------------------------------------------------------
    Charge (ESU x 10^10)
                 0.0000
    Dipole Moment (Debye)
         X      -0.3517      Y       1.6054      Z       0.0000
       Tot       1.6435
    Quadrupole Moments (Debye-Ang)
        XX     -41.9685     XY       3.9528     YY     -58.5508
        XZ       0.0000     YZ       0.0000     ZZ     -54.3077

 Total job time:  94.73s(wall), 482.14s(cpu)
        *  Thank you very much for using Q-Chem.  Have a nice day.  *
