 Q-Chem 4.4, Q-Chem, Inc., Pleasanton, CA (2016)
 Q-Chem 4.4.1 for Intel X86 Linux

User input:
--------------------------------------------------------------
$comment
--------------------------------------------------------

   61    -566.4787420854      6.74E-09 Convergence criterion met
 Total energy in the final basis set = -566.4787420854
 Total job time:  34.31s(wall), 228.92s(cpu)
        *  Thank you very much for using Q-Chem.  Have a nice day.  *
 Q-Chem 4.4, Q-Chem, Inc., Pleasanton, CA (2016)
 Q-Chem 4.4.1 for Intel X86 Linux

User input:
--------------------------------------------------------------

$comment
-----------------------

    3    -566.4787420854      6.24E-09 Convergence criterion met
 Total energy in the final basis set = -566.4787420854
   30    -566.5180715090      6.57E-09 Convergence criterion met
 Total energy in the final basis set = -566.5180715090
   50    -566.5426852358      5.17E-09 Convergence criterion met
 Total energy in the final basis set = -566.5426852358
   30    -566.5637982704      4.90E-09 Convergence criterion met
 Total energy in the final basis set = -566.5637982704
   30    -566.5727041497      6.98E-09 Convergence criterion met
 Total energy in the final basis set = -566.5727041497
   28    -566.5739472807      4.98E-09 Convergence criterion met
 Total energy in the final basis set = -566.5739472807
   26    -566.5741626352      6.09E-09 Convergence criterion met
   32    -566.6207579561      7.78E-09 Convergence criterion met
 Total energy in the final basis set = -566.6207579561
   31    -566.6211606449      5.76E-09 Convergence criterion met
 Total energy in the final basis set = -566.6211606449
   32    -566.6214626404      2.17E-09 Convergence criterion met
 Total energy in the final basis set = -566.6214626404
   29    -566.6215328057      2.87E-09 Convergence criterion met
 Total energy in the final basis set = -566.6215328057
   25    -566.6215509796      9.05E-09 Convergence criterion met
 Total energy in the final basis set = -566.6215509796
   23    -566.6215524960      7.58E-09 Convergence criterion met
 Total energy in the final basis set = -566.6215524960

             Standard Nuclear Orientation (Angstroms)
    I     Atom           X                Y                Z
 ----------------------------------------------------------------
    1      Zr      1.1802480525    -0.9732403325     0.5804987809
    2      Zr     -0.4931089954     1.0841291432     0.0530902840
    3      O       1.4316652884     0.7783299986    -0.3106893358
    4      S      -1.0799743455    -1.2679388093    -0.3282997292
 ----------------------------------------------------------------

   23    -566.6215530776      4.56E-09 Convergence criterion met
 Total energy in the final basis set = -566.6215530776
 Final energy is   -566.621553077564
 **  OPTIMIZATION CONVERGED  **

                    Orbital Energies (a.u.)
 --------------------------------------------------------------

 Alpha MOs
 -- Occupied --
-88.817 -19.144  -7.896  -5.856  -5.855  -5.855  -2.034  -2.027
 -1.267  -1.239  -1.229  -1.228  -1.228  -1.208  -0.883  -0.645
 -0.355  -0.350  -0.338  -0.292  -0.282  -0.259  -0.185  -0.170
 -0.146

 Beta MOs
 -- Occupied --
-88.818 -19.145  -7.896  -5.856  -5.856  -5.855  -2.019  -2.012
 -1.253  -1.224  -1.215  -1.208  -1.206  -1.192  -0.883  -0.646
 -0.355  -0.346  -0.339  -0.287  -0.280  -0.258  -0.170

          Ground-State Mulliken Net Atomic Charges

     Atom                 Charge (a.u.)    Spin (a.u.)
  --------------------------------------------------------
      1 Zr                    0.611936       1.003989
      2 Zr                    0.611866       1.005574
      3 O                    -0.838360       0.038858
      4 S                    -0.385442      -0.048421
  --------------------------------------------------------
  Sum of atomic charges =     0.000000

                    Cartesian Multipole Moments
 -----------------------------------------------------------------
    Charge (ESU x 10^10)
                 0.0000
    Dipole Moment (Debye)
         X       1.1725      Y       1.3460      Z       1.5285
       Tot       2.3501
    Quadrupole Moments (Debye-Ang)
        XX     -63.5477     XY     -11.1054     YY     -59.6628
        XZ       2.9064     YZ      -3.1539     ZZ     -69.0773

 Total job time:  541.77s(wall), 3912.29s(cpu)
        *  Thank you very much for using Q-Chem.  Have a nice day.  *
