 Q-Chem 4.4, Q-Chem, Inc., Pleasanton, CA (2016)
 Q-Chem 4.4.1 for Intel X86 Linux

User input:
--------------------------------------------------------------
$comment
--------------------------------------------------------

   73    -491.1069797612      8.15E-09 Convergence criterion met
 Total energy in the final basis set = -491.1069797612
 Total job time:  37.15s(wall), 189.62s(cpu)
        *  Thank you very much for using Q-Chem.  Have a nice day.  *
 Q-Chem 4.4, Q-Chem, Inc., Pleasanton, CA (2016)
 Q-Chem 4.4.1 for Intel X86 Linux

User input:
--------------------------------------------------------------

$comment
-----------------------

    4    -491.1069797612      8.98E-09 Convergence criterion met
 Total energy in the final basis set = -491.1069797612
   20    -491.1811196025      4.25E-09 Convergence criterion met
 Total energy in the final basis set = -491.1811196025
   17    -491.1929952909      9.53E-09 Convergence criterion met
 Total energy in the final basis set = -491.1929952909
   19    -491.2010113954      9.75E-09 Convergence criterion met
 Total energy in the final basis set = -491.2010113954
   17    -491.2017855251      9.37E-09 Convergence criterion met
 Total energy in the final basis set = -491.2017855251
   16    -491.2018479311      9.39E-09 Convergence criterion met
 Total energy in the final basis set = -491.2018479311
   15    -491.2018556841      9.01E-09 Convergence criterion met
 Total energy in the final basis set = -491.2018556841
   16    -491.2018590343      3.78E-09 Convergence criterion met
 Total energy in the final basis set = -491.2018590343

             Standard Nuclear Orientation (Angstroms)
    I     Atom           X                Y                Z
 ----------------------------------------------------------------
    1      Zr      0.5857124157     0.0013736839     0.0000000000
    2      Zr     -1.7720715154    -0.0007178171     0.0000000000
    3      S       2.8470690996    -0.0011658668     0.0000000000
 ----------------------------------------------------------------

   15    -491.2018590502      4.78E-09 Convergence criterion met
 Total energy in the final basis set = -491.2018590502
 Final energy is   -491.201859050189
 **  OPTIMIZATION CONVERGED  **

                    Orbital Energies (a.u.)
 --------------------------------------------------------------

 Alpha MOs
 -- Occupied --
-88.797  -7.874  -5.836  -5.833  -5.833  -2.056  -2.033  -1.287
 -1.254  -1.254  -1.236  -1.236  -1.186  -0.611  -0.266  -0.256
 -0.256  -0.207  -0.195  -0.195

          Ground-State Mulliken Net Atomic Charges

     Atom                 Charge (a.u.)
  ----------------------------------------
      1 Zr                    0.701063
      2 Zr                   -0.145859
      3 S                    -0.555204
  ----------------------------------------
  Sum of atomic charges =     0.000000

                    Cartesian Multipole Moments
 -----------------------------------------------------------------
    Charge (ESU x 10^10)
                 0.0000
    Dipole Moment (Debye)
         X      -8.4356      Y       0.0072      Z       0.0000
       Tot       8.4356
    Quadrupole Moments (Debye-Ang)
        XX     -67.4391     XY       0.0271     YY     -62.4042
        XZ       0.0000     YZ       0.0000     ZZ     -62.4043

 Total job time:  80.35s(wall), 425.91s(cpu)
        *  Thank you very much for using Q-Chem.  Have a nice day.  *
