 Q-Chem 4.4, Q-Chem, Inc., Pleasanton, CA (2016)
 Q-Chem 4.4.1 for Intel X86 Linux

User input:
--------------------------------------------------------------
$comment
--------------------------------------------------------

   53    -491.2077943089      9.43E-09 Convergence criterion met
 Total energy in the final basis set = -491.2077943089
 Total job time:  21.32s(wall), 148.24s(cpu)
        *  Thank you very much for using Q-Chem.  Have a nice day.  *
 Q-Chem 4.4, Q-Chem, Inc., Pleasanton, CA (2016)
 Q-Chem 4.4.1 for Intel X86 Linux

User input:
--------------------------------------------------------------

$comment
-----------------------

    3    -491.2077943089      7.19E-09 Convergence criterion met
 Total energy in the final basis set = -491.2077943089
   25    -491.2441774638      6.05E-09 Convergence criterion met
 Total energy in the final basis set = -491.2441774638
   22    -491.2681738332      8.00E-09 Convergence criterion met
 Total energy in the final basis set = -491.2681738332
   22    -491.2729070349      1.96E-09 Convergence criterion met
 Total energy in the final basis set = -491.2729070349
   18    -491.2732761093      8.14E-09 Convergence criterion met
 Total energy in the final basis set = -491.2732761093

             Standard Nuclear Orientation (Angstroms)
    I     Atom           X                Y                Z
 ----------------------------------------------------------------
    1      Zr      1.0120634180     0.8107794819     0.0000000000
    2      Zr     -1.2295166065    -0.2053182966     0.0000000000
    3      S       0.7657031885    -1.6206811853     0.0000000000
 ----------------------------------------------------------------

   17    -491.2732842232      5.71E-09 Convergence criterion met
 Total energy in the final basis set = -491.2732842232
 Final energy is   -491.273284223187
 **  OPTIMIZATION CONVERGED  **

                    Orbital Energies (a.u.)
 --------------------------------------------------------------

 Alpha MOs
 -- Occupied --
-88.810  -7.889  -5.849  -5.849  -5.848  -2.004  -1.989  -1.227
 -1.207  -1.206  -1.195  -1.194  -1.146  -0.636  -0.280  -0.267
 -0.258  -0.176  -0.169  -0.161

          Ground-State Mulliken Net Atomic Charges

     Atom                 Charge (a.u.)
  ----------------------------------------
      1 Zr                    0.200921
      2 Zr                    0.200421
      3 S                    -0.401342
  ----------------------------------------
  Sum of atomic charges =     0.000000

                    Cartesian Multipole Moments
 -----------------------------------------------------------------
    Charge (ESU x 10^10)
                 0.0000
    Dipole Moment (Debye)
         X      -1.4631      Y       3.2217      Z       0.0000
       Tot       3.5384
    Quadrupole Moments (Debye-Ang)
        XX     -53.3408     XY       7.1202     YY     -65.5400
        XZ       0.0000     YZ       0.0000     ZZ     -60.6538

 Total job time:  51.83s(wall), 348.05s(cpu)
        *  Thank you very much for using Q-Chem.  Have a nice day.  *
