 Q-Chem 4.4, Q-Chem, Inc., Pleasanton, CA (2016)
 Q-Chem 4.4.1 for Intel X86 Linux

User input:
--------------------------------------------------------------
$comment
--------------------------------------------------------

  107    -290.0703772711      8.69E-09 Convergence criterion met
 Total energy in the final basis set = -290.0703772711
 Total job time:  70.51s(wall), 490.61s(cpu)
        *  Thank you very much for using Q-Chem.  Have a nice day.  *
 Q-Chem 4.4, Q-Chem, Inc., Pleasanton, CA (2016)
 Q-Chem 4.4.1 for Intel X86 Linux

User input:
--------------------------------------------------------------

$comment
-----------------------

    3    -290.0703772711      3.11E-09 Convergence criterion met
 Total energy in the final basis set = -290.0703772711
   28    -290.1129181726      8.06E-09 Convergence criterion met
 Total energy in the final basis set = -290.1129181726
   28    -290.1386262993      7.46E-09 Convergence criterion met
 Total energy in the final basis set = -290.1386262993
   27    -290.1525392160      6.88E-09 Convergence criterion met
 Total energy in the final basis set = -290.1525392160
   24    -290.1594170329      5.79E-09 Convergence criterion met
 Total energy in the final basis set = -290.1594170329
   25    -290.1615400850      4.39E-09 Convergence criterion met
 Total energy in the final basis set = -290.1615400850
   21    -290.1618517169      8.20E-09 Convergence criterion met
 Total energy in the final basis set = -290.1618517169
   24    -290.1625581681      5.07E-09 Convergence criterion met
 Total energy in the final basis set = -290.1625581681
   22    -290.1625976809      2.89E-09 Convergence criterion met
 Total energy in the final basis set = -290.1625976809
   21    -290.1626023007      3.29E-09 Convergence criterion met
 Total energy in the final basis set = -290.1626023007

             Standard Nuclear Orientation (Angstroms)
    I     Atom           X                Y                Z
 ----------------------------------------------------------------
    1      Zr      0.6683845065    -1.2937244911    -0.0070670552
    2      Zr     -1.5660308866     0.0047603465     0.0001638600
    3      Zr      0.6757750193     1.2904449184     0.0069250231
    4      O      -0.0736606327     0.0102734579    -1.6171763078
    5      O      -0.0735580064    -0.0092242317     1.6171944799
 ----------------------------------------------------------------

   18    -290.1626029823      8.87E-09 Convergence criterion met
 Total energy in the final basis set = -290.1626029823
 Final energy is   -290.162602982267
 **  OPTIMIZATION CONVERGED  **

                    Orbital Energies (a.u.)
 --------------------------------------------------------------

 Alpha MOs
 -- Occupied --
-19.103 -19.102  -1.976  -1.960  -1.960  -1.218  -1.187  -1.184
 -1.184  -1.165  -1.165  -1.145  -1.133  -1.133  -0.842  -0.842
 -0.302  -0.298  -0.298  -0.297  -0.293  -0.293  -0.171  -0.144
 -0.144  -0.126

          Ground-State Mulliken Net Atomic Charges

     Atom                 Charge (a.u.)
  ----------------------------------------
      1 Zr                    0.573314
      2 Zr                    0.572986
      3 Zr                    0.573348
      4 O                    -0.859824
      5 O                    -0.859824
  ----------------------------------------
  Sum of atomic charges =     0.000000

                    Cartesian Multipole Moments
 -----------------------------------------------------------------
    Charge (ESU x 10^10)
                 0.0000
    Dipole Moment (Debye)
         X      -0.0016      Y      -0.0001      Z       0.0000
       Tot       0.0016
    Quadrupole Moments (Debye-Ang)
        XX     -70.4664     XY      -0.0002     YY     -70.4727
        XZ      -0.0004     YZ       0.1109     ZZ     -88.5762

 Total job time:  196.44s(wall), 1279.81s(cpu)
        *  Thank you very much for using Q-Chem.  Have a nice day.  *
