 Q-Chem 4.4, Q-Chem, Inc., Pleasanton, CA (2016)
 Q-Chem 4.4.1 for Intel X86 Linux

User input:
--------------------------------------------------------------
$comment
--------------------------------------------------------

  114    -688.2156104517      4.58E-09 Convergence criterion met
 Total energy in the final basis set = -688.2156104517
 Total job time:  87.69s(wall), 795.44s(cpu)
        *  Thank you very much for using Q-Chem.  Have a nice day.  *
 Q-Chem 4.4, Q-Chem, Inc., Pleasanton, CA (2016)
 Q-Chem 4.4.1 for Intel X86 Linux

User input:
--------------------------------------------------------------

$comment
-----------------------

    3    -688.2156104517      4.59E-09 Convergence criterion met
 Total energy in the final basis set = -688.2156104517
  104    -688.2563378154      8.18E-09 Convergence criterion met
 Total energy in the final basis set = -688.2563378154
   43    -688.2848158009      8.93E-09 Convergence criterion met
 Total energy in the final basis set = -688.2848158009
   44    -688.3074532821      8.20E-09 Convergence criterion met
 Total energy in the final basis set = -688.3074532821
   57    -688.3264941009      6.33E-09 Convergence criterion met
 Total energy in the final basis set = -688.3264941009
   46    -688.3405268090      8.15E-09 Convergence criterion met
 Total energy in the final basis set = -688.3405268090
   55    -688.3527918409      4.43E-09 Convergence criterion met
   39    -688.4889661936      5.76E-09 Convergence criterion met
 Total energy in the final basis set = -688.4889661936
   39    -688.4890827010      5.22E-09 Convergence criterion met
 Total energy in the final basis set = -688.4890827010
   33    -688.4891096753      6.92E-09 Convergence criterion met
 Total energy in the final basis set = -688.4891096753
   34    -688.4891220617      9.21E-09 Convergence criterion met
 Total energy in the final basis set = -688.4891220617
   32    -688.4891251743      4.64E-09 Convergence criterion met
 Total energy in the final basis set = -688.4891251743
   33    -688.4891245048      6.27E-09 Convergence criterion met
 Total energy in the final basis set = -688.4891245048

             Standard Nuclear Orientation (Angstroms)
    I     Atom           X                Y                Z
 ----------------------------------------------------------------
    1      Zr      1.3358347110     0.0010641494    -1.7999907827
    2      Zr     -1.3429764287     0.0057434775    -1.7938384979
    3      Zr      0.0019357811    -0.0030973577     1.1300624943
    4      O      -1.7425128348    -0.0012521305     0.0859369541
    5      O       1.7418799531    -0.0074711812     0.0783905411
    6      S       0.0058388182     0.0050130425     3.3952292911
 ----------------------------------------------------------------

   29    -688.4891240038      8.82E-09 Convergence criterion met
 Total energy in the final basis set = -688.4891240038
 Final energy is   -688.489124003781
 **  OPTIMIZATION CONVERGED  **

                    Orbital Energies (a.u.)
 --------------------------------------------------------------

 Alpha MOs
 -- Occupied --
-88.777 -19.153 -19.153  -7.855  -5.816  -5.814  -5.813  -2.046
 -2.041  -2.034  -1.265  -1.264  -1.255  -1.250  -1.242  -1.238
 -1.237  -1.232  -1.209  -0.900  -0.890  -0.597  -0.392  -0.369
 -0.361  -0.352  -0.350  -0.350  -0.247  -0.229  -0.219  -0.211
 -0.194  -0.190  -0.178

 Beta MOs
 -- Occupied --
-88.776 -19.153 -19.153  -7.855  -5.816  -5.814  -5.813  -2.042
 -2.026  -2.020  -1.257  -1.256  -1.243  -1.233  -1.233  -1.229
 -1.223  -1.216  -1.188  -0.899  -0.889  -0.597  -0.387  -0.365
 -0.357  -0.352  -0.350  -0.350  -0.241  -0.228  -0.211  -0.201
 -0.186

          Ground-State Mulliken Net Atomic Charges

     Atom                 Charge (a.u.)    Spin (a.u.)
  --------------------------------------------------------
      1 Zr                    0.471684       0.882028
      2 Zr                    0.471520       0.882505
      3 Zr                    1.260296       0.230394
      4 O                    -0.854633      -0.003645
      5 O                    -0.854686      -0.003638
      6 S                    -0.494181       0.012356
  --------------------------------------------------------
  Sum of atomic charges =     0.000000

                    Cartesian Multipole Moments
 -----------------------------------------------------------------
    Charge (ESU x 10^10)
                 0.0000
    Dipole Moment (Debye)
         X      -0.0197      Y      -0.0083      Z     -11.6144
       Tot      11.6144
    Quadrupole Moments (Debye-Ang)
        XX     -89.0703     XY      -0.0032     YY     -91.1613
        XZ      -0.0230     YZ      -0.1221     ZZ    -103.0562

 Total job time:  1126.59s(wall), 9849.69s(cpu)
        *  Thank you very much for using Q-Chem.  Have a nice day.  *
