 Q-Chem 4.4, Q-Chem, Inc., Pleasanton, CA (2016)
 Q-Chem 4.4.1 for Intel X86 Linux

User input:
--------------------------------------------------------------
$comment
--------------------------------------------------------

   90    -670.3767065182      5.67E-09 Convergence criterion met
 Total energy in the final basis set = -670.3767065182
 Total job time:  47.17s(wall), 395.51s(cpu)
        *  Thank you very much for using Q-Chem.  Have a nice day.  *
 Q-Chem 4.4, Q-Chem, Inc., Pleasanton, CA (2016)
 Q-Chem 4.4.1 for Intel X86 Linux

User input:
--------------------------------------------------------------

$comment
-----------------------

    2    -670.3767065182      2.37E-09 Convergence criterion met
 Total energy in the final basis set = -670.3767065182
   25    -670.4310162389      6.66E-09 Convergence criterion met
 Total energy in the final basis set = -670.4310162389
   28    -670.4547628760      6.32E-09 Convergence criterion met
 Total energy in the final basis set = -670.4547628760
   25    -670.4606504854      4.98E-09 Convergence criterion met
 Total energy in the final basis set = -670.4606504854
   24    -670.4612212195      5.49E-09 Convergence criterion met
 Total energy in the final basis set = -670.4612212195
   24    -670.4613140507      9.20E-09 Convergence criterion met
 Total energy in the final basis set = -670.4613140507
   24    -670.4613447207      9.42E-09 Convergence criterion met
 Total energy in the final basis set = -670.4613447207
   27    -670.4613944655      9.95E-09 Convergence criterion met
 Total energy in the final basis set = -670.4613944655
   27    -670.4614172441      7.47E-09 Convergence criterion met
 Total energy in the final basis set = -670.4614172441
   24    -670.4614233919      9.43E-09 Convergence criterion met
 Total energy in the final basis set = -670.4614233919

             Standard Nuclear Orientation (Angstroms)
    I     Atom           X                Y                Z
 ----------------------------------------------------------------
    1      Zr      0.4993502889    -0.0002173742    -0.0531721831
    2      O       1.5324807464     1.5428013467    -0.1818216644
    3      O      -1.3485854282     0.0043463539     1.0812862117
    4      O       1.5318698359    -1.5459296011    -0.1722307659
    5      S      -2.1126954431     0.0009292747    -0.3466915983
 ----------------------------------------------------------------

   22    -670.4614241092      9.73E-09 Convergence criterion met
 Total energy in the final basis set = -670.4614241092
 Final energy is   -670.461424109219
 **  OPTIMIZATION CONVERGED  **

                    Orbital Energies (a.u.)
 --------------------------------------------------------------

 Alpha MOs
 -- Occupied --
-88.969 -19.238 -19.191 -19.191  -8.038  -6.002  -6.002  -5.992
 -2.078  -1.300  -1.291  -1.279  -1.068  -0.927  -0.911  -0.717
 -0.472  -0.468  -0.459  -0.414  -0.373  -0.367  -0.364  -0.355
 -0.345  -0.300  -0.299

 Beta MOs
 -- Occupied --
-88.965 -19.228 -19.176 -19.175  -8.034  -6.000  -5.989  -5.989
 -2.082  -1.302  -1.295  -1.283  -1.047  -0.884  -0.868  -0.685
 -0.459  -0.447  -0.415  -0.354  -0.350  -0.341  -0.338  -0.314
 -0.288

          Ground-State Mulliken Net Atomic Charges

     Atom                 Charge (a.u.)    Spin (a.u.)
  --------------------------------------------------------
      1 Zr                    1.333264      -0.261846
      2 O                    -0.525886       0.609381
      3 O                    -0.541718       0.300796
      4 O                    -0.525575       0.615083
      5 S                     0.259915       0.736587
  --------------------------------------------------------
  Sum of atomic charges =     0.000000

                    Cartesian Multipole Moments
 -----------------------------------------------------------------
    Charge (ESU x 10^10)
                 0.0000
    Dipole Moment (Debye)
         X      -2.4226      Y      -0.0113      Z      -1.0865
       Tot       2.6551
    Quadrupole Moments (Debye-Ang)
        XX     -57.5605     XY       0.0034     YY     -59.3461
        XZ       4.3808     YZ       0.0337     ZZ     -48.0941

 Total job time:  156.58s(wall), 1226.46s(cpu)
        *  Thank you very much for using Q-Chem.  Have a nice day.  *
