 Q-Chem 4.4, Q-Chem, Inc., Pleasanton, CA (2016)
 Q-Chem 4.4.1 for Intel X86 Linux

User input:
--------------------------------------------------------------
$comment
--------------------------------------------------------

   66    -670.3726217205      5.56E-09 Convergence criterion met
 Total energy in the final basis set = -670.3726217205
 Total job time:  24.80s(wall), 243.80s(cpu)
        *  Thank you very much for using Q-Chem.  Have a nice day.  *
 Q-Chem 4.4, Q-Chem, Inc., Pleasanton, CA (2016)
 Q-Chem 4.4.1 for Intel X86 Linux

User input:
--------------------------------------------------------------

$comment
-----------------------

    5    -670.3726217205      7.08E-09 Convergence criterion met
 Total energy in the final basis set = -670.3726217205
   25    -670.4043555294      7.78E-09 Convergence criterion met
 Total energy in the final basis set = -670.4043555294
   30    -670.4129920946      1.50E-09 Convergence criterion met
 Total energy in the final basis set = -670.4129920946
   22    -670.4153037447      7.92E-09 Convergence criterion met
 Total energy in the final basis set = -670.4153037447
   25    -670.4162491839      5.75E-09 Convergence criterion met
 Total energy in the final basis set = -670.4162491839
   23    -670.4165916271      5.02E-09 Convergence criterion met
 Total energy in the final basis set = -670.4165916271
   21    -670.4167260041      9.11E-09 Convergence criterion met
   19    -670.4721555521      9.24E-09 Convergence criterion met
 Total energy in the final basis set = -670.4721555521
   21    -670.4724540729      2.53E-09 Convergence criterion met
 Total energy in the final basis set = -670.4724540729
   18    -670.4727790719      7.51E-09 Convergence criterion met
 Total energy in the final basis set = -670.4727790719
   18    -670.4729605389      5.96E-09 Convergence criterion met
 Total energy in the final basis set = -670.4729605389
   19    -670.4730044603      3.65E-09 Convergence criterion met
 Total energy in the final basis set = -670.4730044603
   18    -670.4730272455      9.63E-09 Convergence criterion met
 Total energy in the final basis set = -670.4730272455

             Standard Nuclear Orientation (Angstroms)
    I     Atom           X                Y                Z
 ----------------------------------------------------------------
    1      Zr      0.7321096748     0.3381803447     0.0000000000
    2      O       2.3757321677     1.0509268856     0.0000000000
    3      O      -1.2318248776     0.9029215140     0.0000000000
    4      O      -0.1945800654    -1.4815236663     0.0000000000
    5      S      -1.7791068995    -0.7526950780     0.0000000000
 ----------------------------------------------------------------

   17    -670.4730297253      3.42E-09 Convergence criterion met
 Total energy in the final basis set = -670.4730297253
 Final energy is   -670.473029725272
 **  OPTIMIZATION CONVERGED  **

                    Orbital Energies (a.u.)
 --------------------------------------------------------------

 Alpha MOs
 -- Occupied --
-88.964 -19.193 -19.193 -19.137  -8.026  -5.993  -5.990  -5.976
 -2.102  -1.322  -1.306  -1.304  -1.019  -0.964  -0.862  -0.673
 -0.470  -0.444  -0.423  -0.373  -0.368  -0.357  -0.334  -0.315
 -0.310  -0.225

          Ground-State Mulliken Net Atomic Charges

     Atom                 Charge (a.u.)
  ----------------------------------------
      1 Zr                    1.579340
      2 O                    -0.512434
      3 O                    -0.757540
      4 O                    -0.757567
      5 S                     0.448202
  ----------------------------------------
  Sum of atomic charges =     0.000000

                    Cartesian Multipole Moments
 -----------------------------------------------------------------
    Charge (ESU x 10^10)
                 0.0000
    Dipole Moment (Debye)
         X      -0.3556      Y      -0.1522      Z       0.0000
       Tot       0.3868
    Quadrupole Moments (Debye-Ang)
        XX     -63.3045     XY      -3.5762     YY     -56.5986
        XZ       0.0000     YZ       0.0000     ZZ     -46.2745

 Total job time:  300.68s(wall), 2702.45s(cpu)
        *  Thank you very much for using Q-Chem.  Have a nice day.  *
