 Q-Chem 4.4, Q-Chem, Inc., Pleasanton, CA (2016)
 Q-Chem 4.4.1 for Intel X86 Linux

User input:
--------------------------------------------------------------
$comment
--------------------------------------------------------

   95    -670.3604497537      9.20E-09 Convergence criterion met
 Total energy in the final basis set = -670.3604497537
 Total job time:  63.01s(wall), 443.87s(cpu)
        *  Thank you very much for using Q-Chem.  Have a nice day.  *
 Q-Chem 4.4, Q-Chem, Inc., Pleasanton, CA (2016)
 Q-Chem 4.4.1 for Intel X86 Linux

User input:
--------------------------------------------------------------

$comment
-----------------------

    3    -670.3604497537      6.43E-09 Convergence criterion met
 Total energy in the final basis set = -670.3604497537
   32    -670.3977517688      6.59E-09 Convergence criterion met
 Total energy in the final basis set = -670.3977517688
   31    -670.4139524306      2.21E-09 Convergence criterion met
 Total energy in the final basis set = -670.4139524306
   26    -670.4221654293      7.90E-09 Convergence criterion met
 Total energy in the final basis set = -670.4221654293
   26    -670.4251962964      2.71E-09 Convergence criterion met
 Total energy in the final basis set = -670.4251962964
   26    -670.4260051306      2.35E-09 Convergence criterion met
 Total energy in the final basis set = -670.4260051306
   24    -670.4262964710      5.50E-09 Convergence criterion met
   24    -670.4501766824      7.97E-09 Convergence criterion met
 Total energy in the final basis set = -670.4501766824
   24    -670.4508593880      9.13E-09 Convergence criterion met
 Total energy in the final basis set = -670.4508593880
   22    -670.4513848871      7.35E-09 Convergence criterion met
 Total energy in the final basis set = -670.4513848871
   24    -670.4516859615      8.56E-09 Convergence criterion met
 Total energy in the final basis set = -670.4516859615
   21    -670.4517051880      5.84E-09 Convergence criterion met
 Total energy in the final basis set = -670.4517051880
   19    -670.4517098449      6.38E-09 Convergence criterion met
 Total energy in the final basis set = -670.4517098449

             Standard Nuclear Orientation (Angstroms)
    I     Atom           X                Y                Z
 ----------------------------------------------------------------
    1      Zr      0.3564383063    -0.5954050167     0.0000000000
    2      O       1.0007810673     1.1621217171     0.0000000000
    3      S      -2.0150747922     1.2193624709     0.0000000000
    4      O       1.6384735382    -1.8475670262     0.0000000000
    5      O      -1.8936681196    -0.3587221452     0.0000000000
 ----------------------------------------------------------------

   18    -670.4517102711      8.40E-09 Convergence criterion met
 Total energy in the final basis set = -670.4517102711
 Final energy is   -670.451710271101
 **  OPTIMIZATION CONVERGED  **

                    Orbital Energies (a.u.)
 --------------------------------------------------------------

 Alpha MOs
 -- Occupied --
-88.996 -19.254 -19.160 -19.116  -8.062  -6.026  -6.025  -6.021
 -2.056  -1.279  -1.267  -1.261  -1.096  -0.892  -0.840  -0.732
 -0.495  -0.483  -0.480  -0.373  -0.345  -0.338  -0.314  -0.308
 -0.303  -0.286  -0.284

 Beta MOs
 -- Occupied --
-88.989 -19.241 -19.146 -19.115  -8.055  -6.021  -6.010  -6.009
 -2.058  -1.280  -1.269  -1.263  -1.069  -0.857  -0.834  -0.681
 -0.470  -0.448  -0.426  -0.340  -0.325  -0.321  -0.303  -0.293
 -0.260

          Ground-State Mulliken Net Atomic Charges

     Atom                 Charge (a.u.)    Spin (a.u.)
  --------------------------------------------------------
      1 Zr                    1.438910      -0.135484
      2 O                    -0.642111       0.486801
      3 S                     0.404937       1.229521
      4 O                    -0.617409       0.050527
      5 O                    -0.584327       0.368635
  --------------------------------------------------------
  Sum of atomic charges =     0.000000

                    Cartesian Multipole Moments
 -----------------------------------------------------------------
    Charge (ESU x 10^10)
                 0.0000
    Dipole Moment (Debye)
         X      -4.8977      Y       0.5038      Z       0.0000
       Tot       4.9236
    Quadrupole Moments (Debye-Ang)
        XX     -60.1487     XY       1.3150     YY     -58.3472
        XZ       0.0000     YZ       0.0000     ZZ     -44.1341

 Total job time:  479.80s(wall), 3091.21s(cpu)
        *  Thank you very much for using Q-Chem.  Have a nice day.  *
