 Q-Chem 4.4, Q-Chem, Inc., Pleasanton, CA (2016)
 Q-Chem 4.4.1 for Intel X86 Linux

User input:
--------------------------------------------------------------
$comment
--------------------------------------------------------

   53    -347.3352000901      5.17E-09 Convergence criterion met
 Total energy in the final basis set = -347.3352000901
 Total job time:  29.91s(wall), 215.34s(cpu)
        *  Thank you very much for using Q-Chem.  Have a nice day.  *
 Q-Chem 4.4, Q-Chem, Inc., Pleasanton, CA (2016)
 Q-Chem 4.4.1 for Intel X86 Linux

User input:
--------------------------------------------------------------

$comment
-----------------------

    3    -347.3352000901      9.87E-09 Convergence criterion met
 Total energy in the final basis set = -347.3352000901
   26    -347.3750024555      8.23E-09 Convergence criterion met
 Total energy in the final basis set = -347.3750024555
   27    -347.3841281586      2.71E-09 Convergence criterion met
 Total energy in the final basis set = -347.3841281586
   24    -347.3852903553      6.11E-09 Convergence criterion met
 Total energy in the final basis set = -347.3852903553
   24    -347.3855849560      4.48E-09 Convergence criterion met
 Total energy in the final basis set = -347.3855849560
   24    -347.3859527565      7.13E-09 Convergence criterion met
 Total energy in the final basis set = -347.3859527565
   27    -347.3863177252      2.02E-09 Convergence criterion met
   23    -347.3887926220      7.51E-09 Convergence criterion met
 Total energy in the final basis set = -347.3887926220
   26    -347.3889716858      5.89E-10 Convergence criterion met
 Total energy in the final basis set = -347.3889716858
   22    -347.3890471061      9.83E-09 Convergence criterion met
 Total energy in the final basis set = -347.3890471061
   22    -347.3891027193      3.02E-09 Convergence criterion met
 Total energy in the final basis set = -347.3891027193
   20    -347.3891141666      3.42E-09 Convergence criterion met
 Total energy in the final basis set = -347.3891141666
   18    -347.3891187168      6.19E-09 Convergence criterion met
 Total energy in the final basis set = -347.3891187168

             Standard Nuclear Orientation (Angstroms)
    I     Atom           X                Y                Z
 ----------------------------------------------------------------
    1      Zr      0.3779885340    -0.0448559790     0.0000000000
    2      O       1.8684111812     1.2494176676     0.0000000000
    3      O      -1.6172494408     0.4132319215     0.0000000000
    4      O       0.9444405679    -1.7343992389     0.0000000000
    5      O      -2.8925708424     0.1275856288     0.0000000000
 ----------------------------------------------------------------

   19    -347.3891192009      6.95E-09 Convergence criterion met
 Total energy in the final basis set = -347.3891192009
 Final energy is   -347.389119200899
 **  OPTIMIZATION CONVERGED  **

                    Orbital Energies (a.u.)
 --------------------------------------------------------------

 Alpha MOs
 -- Occupied --
-19.264 -19.255 -19.227 -19.173  -2.095  -1.319  -1.304  -1.296
 -1.191  -0.964  -0.896  -0.836  -0.530  -0.510  -0.476  -0.437
 -0.397  -0.381  -0.363  -0.359  -0.347  -0.311  -0.276

 Beta MOs
 -- Occupied --
-19.256 -19.235 -19.205 -19.167  -2.097  -1.320  -1.305  -1.299
 -1.161  -0.898  -0.877  -0.795  -0.509  -0.463  -0.439  -0.373
 -0.363  -0.352  -0.347  -0.332  -0.257

          Ground-State Mulliken Net Atomic Charges

     Atom                 Charge (a.u.)    Spin (a.u.)
  --------------------------------------------------------
      1 Zr                    1.583417      -0.128055
      2 O                    -0.506794       0.921778
      3 O                    -0.319182       0.252246
      4 O                    -0.489982       0.230372
      5 O                    -0.267458       0.723659
  --------------------------------------------------------
  Sum of atomic charges =     0.000000

                    Cartesian Multipole Moments
 -----------------------------------------------------------------
    Charge (ESU x 10^10)
                 0.0000
    Dipole Moment (Debye)
         X       0.1972      Y       1.2534      Z       0.0000
       Tot       1.2688
    Quadrupole Moments (Debye-Ang)
        XX     -57.4159     XY       0.0979     YY     -51.2965
        XZ       0.0000     YZ       0.0000     ZZ     -37.7769

 Total job time:  315.42s(wall), 2142.23s(cpu)
        *  Thank you very much for using Q-Chem.  Have a nice day.  *
