 Q-Chem 4.4, Q-Chem, Inc., Pleasanton, CA (2016)
 Q-Chem 4.4.1 for Intel X86 Linux

User input:
--------------------------------------------------------------
$comment
--------------------------------------------------------

   85    -745.5291812770      2.61E-09 Convergence criterion met
 Total energy in the final basis set = -745.5291812770
 Total job time:  46.30s(wall), 475.28s(cpu)
        *  Thank you very much for using Q-Chem.  Have a nice day.  *
 Q-Chem 4.4, Q-Chem, Inc., Pleasanton, CA (2016)
 Q-Chem 4.4.1 for Intel X86 Linux

User input:
--------------------------------------------------------------

$comment
-----------------------

    3    -745.5291812770      3.55E-09 Convergence criterion met
 Total energy in the final basis set = -745.5291812770
   40    -745.5835747764      6.04E-09 Convergence criterion met
 Total energy in the final basis set = -745.5835747764
   38    -745.6054247448      5.31E-09 Convergence criterion met
 Total energy in the final basis set = -745.6054247448
   32    -745.6099900739      7.10E-09 Convergence criterion met
 Total energy in the final basis set = -745.6099900739
   31    -745.6111337743      9.90E-09 Convergence criterion met
 Total energy in the final basis set = -745.6111337743
   31    -745.6114562022      7.95E-09 Convergence criterion met
 Total energy in the final basis set = -745.6114562022
   32    -745.6117157998      6.62E-09 Convergence criterion met
   31    -745.6121353654      6.57E-09 Convergence criterion met
 Total energy in the final basis set = -745.6121353654
   30    -745.6122109808      6.37E-09 Convergence criterion met
 Total energy in the final basis set = -745.6122109808
   33    -745.6122931685      2.64E-09 Convergence criterion met
 Total energy in the final basis set = -745.6122931685
   31    -745.6123120001      8.98E-09 Convergence criterion met
 Total energy in the final basis set = -745.6123120001
   30    -745.6123180210      4.95E-09 Convergence criterion met
 Total energy in the final basis set = -745.6123180210
   29    -745.6123193171      2.10E-09 Convergence criterion met
 Total energy in the final basis set = -745.6123193171

             Standard Nuclear Orientation (Angstroms)
    I     Atom           X                Y                Z
 ----------------------------------------------------------------
    1      Zr      0.7246084406    -0.0352146981     0.0037306976
    2      O      -1.5560861644     0.2821992636    -0.0029993537
    3      O       1.4701502610     0.7464113219     1.6937180042
    4      O       1.4680292837     0.7212372714    -1.6986064623
    5      O       0.9336038696    -1.8253564985     0.0166763975
    6      S      -3.0712356904     0.2313433398    -0.0125292834
 ----------------------------------------------------------------

   29    -745.6123198211      1.17E-09 Convergence criterion met
 Total energy in the final basis set = -745.6123198211
 Final energy is   -745.612319821102
 **  OPTIMIZATION CONVERGED  **

                    Orbital Energies (a.u.)
 --------------------------------------------------------------

 Alpha MOs
 -- Occupied --
-89.066 -19.316 -19.190 -19.190 -19.142  -8.130  -6.093  -6.092
 -6.092  -2.044  -1.268  -1.252  -1.251  -1.175  -0.933  -0.919
 -0.865  -0.791  -0.570  -0.545  -0.545  -0.401  -0.400  -0.362
 -0.362  -0.358  -0.350  -0.339  -0.332  -0.325  -0.318  -0.311

 Beta MOs
 -- Occupied --
-89.058 -19.298 -19.166 -19.166 -19.133  -8.122  -6.088  -6.077
 -6.077  -2.048  -1.270  -1.254  -1.254  -1.140  -0.863  -0.849
 -0.839  -0.730  -0.538  -0.483  -0.483  -0.339  -0.337  -0.321
 -0.315  -0.313  -0.297  -0.282

          Ground-State Mulliken Net Atomic Charges

     Atom                 Charge (a.u.)    Spin (a.u.)
  --------------------------------------------------------
      1 Zr                    1.590113      -0.199400
      2 O                    -0.605550       0.473825
      3 O                    -0.525370       0.948250
      4 O                    -0.525434       0.948278
      5 O                    -0.513749       0.362211
      6 S                     0.579990       1.466835
  --------------------------------------------------------
  Sum of atomic charges =     0.000000

                    Cartesian Multipole Moments
 -----------------------------------------------------------------
    Charge (ESU x 10^10)
                 0.0000
    Dipole Moment (Debye)
         X      -8.7967      Y       1.9063      Z      -0.0340
       Tot       9.0009
    Quadrupole Moments (Debye-Ang)
        XX     -43.0619     XY      -1.4154     YY     -63.0657
        XZ       0.0623     YZ      -0.0136     ZZ     -65.1042

 Total job time:  374.23s(wall), 3730.74s(cpu)
        *  Thank you very much for using Q-Chem.  Have a nice day.  *
