 Q-Chem 4.4, Q-Chem, Inc., Pleasanton, CA (2016)
 Q-Chem 4.4.1 for Intel X86 Linux

User input:
--------------------------------------------------------------
$comment
--------------------------------------------------------

  114    -745.6004740918      2.59E-09 Convergence criterion met
 Total energy in the final basis set = -745.6004740918
 Total job time:  49.69s(wall), 534.62s(cpu)
        *  Thank you very much for using Q-Chem.  Have a nice day.  *
 Q-Chem 4.4, Q-Chem, Inc., Pleasanton, CA (2016)
 Q-Chem 4.4.1 for Intel X86 Linux

User input:
--------------------------------------------------------------

$comment
-----------------------

    3    -745.6004740918      2.09E-09 Convergence criterion met
 Total energy in the final basis set = -745.6004740918
   29    -745.6379681733      9.20E-09 Convergence criterion met
 Total energy in the final basis set = -745.6379681733
   28    -745.6573162738      5.05E-09 Convergence criterion met
 Total energy in the final basis set = -745.6573162738
   27    -745.6703582747      5.73E-09 Convergence criterion met
 Total energy in the final basis set = -745.6703582747
   27    -745.6796372091      6.87E-09 Convergence criterion met
 Total energy in the final basis set = -745.6796372091
   25    -745.6866707447      2.14E-09 Convergence criterion met
 Total energy in the final basis set = -745.6866707447
   25    -745.6912385862      6.00E-09 Convergence criterion met
   20    -745.7385402423      6.03E-09 Convergence criterion met
 Total energy in the final basis set = -745.7385402423
   19    -745.7386560084      3.60E-09 Convergence criterion met
 Total energy in the final basis set = -745.7386560084
   19    -745.7387062006      5.66E-10 Convergence criterion met
 Total energy in the final basis set = -745.7387062006
   17    -745.7387291966      8.06E-09 Convergence criterion met
 Total energy in the final basis set = -745.7387291966
   18    -745.7387405536      5.43E-09 Convergence criterion met
 Total energy in the final basis set = -745.7387405536
   19    -745.7387456845      1.49E-09 Convergence criterion met
 Total energy in the final basis set = -745.7387456845

             Standard Nuclear Orientation (Angstroms)
    I     Atom           X                Y                Z
 ----------------------------------------------------------------
    1      Zr      1.0108341110     0.0744650741     0.4211643322
    2      S      -1.5951247741    -0.2552669578    -0.4713777900
    3      O      -0.8020700591     0.9921996660     0.3593481135
    4      O       2.2667029520     0.9504641586    -0.4644280519
    5      O      -0.1505453491    -1.0895294052    -0.7748857966
    6      O      -2.3696068807    -1.0324425357     0.5101891927
 ----------------------------------------------------------------

   18    -745.7387467335      7.72E-09 Convergence criterion met
 Total energy in the final basis set = -745.7387467335
 Final energy is   -745.738746733525
 **  OPTIMIZATION CONVERGED  **

                    Orbital Energies (a.u.)
 --------------------------------------------------------------

 Alpha MOs
 -- Occupied --
-89.077 -19.186 -19.186 -19.169 -19.146  -8.121  -6.085  -6.085
 -6.078  -2.091  -1.315  -1.300  -1.293  -1.102  -0.996  -0.973
 -0.867  -0.655  -0.507  -0.490  -0.471  -0.401  -0.381  -0.362
 -0.355  -0.337  -0.336  -0.317  -0.317  -0.295

          Ground-State Mulliken Net Atomic Charges

     Atom                 Charge (a.u.)
  ----------------------------------------
      1 Zr                    1.558401
      2 S                     1.178221
      3 O                    -0.826143
      4 O                    -0.508742
      5 O                    -0.826147
      6 O                    -0.575590
  ----------------------------------------
  Sum of atomic charges =     0.000000

                    Cartesian Multipole Moments
 -----------------------------------------------------------------
    Charge (ESU x 10^10)
                 0.0000
    Dipole Moment (Debye)
         X       3.0421      Y      -1.2920      Z       4.1193
       Tot       5.2813
    Quadrupole Moments (Debye-Ang)
        XX     -64.0468     XY      -8.9065     YY     -61.2510
        XZ      13.0749     YZ      -0.0102     ZZ     -51.0451

 Total job time:  345.13s(wall), 3415.64s(cpu)
        *  Thank you very much for using Q-Chem.  Have a nice day.  *
