 Q-Chem 4.4, Q-Chem, Inc., Pleasanton, CA (2016)
 Q-Chem 4.4.1 for Intel X86 Linux

User input:
--------------------------------------------------------------
$comment
--------------------------------------------------------

   86    -422.4734132472      9.49E-09 Convergence criterion met
 Total energy in the final basis set = -422.4734132472
 Total job time:  85.17s(wall), 461.02s(cpu)
        *  Thank you very much for using Q-Chem.  Have a nice day.  *
 Q-Chem 4.4, Q-Chem, Inc., Pleasanton, CA (2016)
 Q-Chem 4.4.1 for Intel X86 Linux

User input:
--------------------------------------------------------------

$comment
-----------------------

    5    -422.4734132472      3.29E-09 Convergence criterion met
 Total energy in the final basis set = -422.4734132472
   46    -422.5254618436      3.70E-09 Convergence criterion met
 Total energy in the final basis set = -422.5254618436
   42    -422.5449572466      8.97E-09 Convergence criterion met
 Total energy in the final basis set = -422.5449572466
   39    -422.5493501772      5.73E-09 Convergence criterion met
 Total energy in the final basis set = -422.5493501772
   36    -422.5517854119      8.52E-09 Convergence criterion met
 Total energy in the final basis set = -422.5517854119
   31    -422.5529065357      6.76E-09 Convergence criterion met
 Total energy in the final basis set = -422.5529065357
   32    -422.5537147308      8.06E-09 Convergence criterion met
   30    -422.5562873996      9.22E-09 Convergence criterion met
 Total energy in the final basis set = -422.5562873996
   32    -422.5563662753      8.08E-09 Convergence criterion met
 Total energy in the final basis set = -422.5563662753
   32    -422.5564457275      7.69E-09 Convergence criterion met
 Total energy in the final basis set = -422.5564457275
   30    -422.5564932130      8.50E-09 Convergence criterion met
 Total energy in the final basis set = -422.5564932130
   32    -422.5565164728      3.44E-09 Convergence criterion met
 Total energy in the final basis set = -422.5565164728
   32    -422.5565199667      6.01E-09 Convergence criterion met
 Total energy in the final basis set = -422.5565199667

             Standard Nuclear Orientation (Angstroms)
    I     Atom           X                Y                Z
 ----------------------------------------------------------------
    1      Zr      0.4539792592    -0.0148049656     0.0767876078
    2      O      -1.9410636143     0.2717755337    -0.4441870220
    3      O       0.8615198338     0.7921299921     1.8573549664
    4      O       1.2160048557     0.9532068044    -1.2298987983
    5      O       0.9559726838    -1.9386145610    -0.1102469161
    6      O      -3.0805030181     0.0009171965    -0.1271198378
 ----------------------------------------------------------------

   31    -422.5565207871      2.17E-09 Convergence criterion met
 Total energy in the final basis set = -422.5565207871
 Final energy is   -422.556520787094
 **  OPTIMIZATION CONVERGED  **

                    Orbital Energies (a.u.)
 --------------------------------------------------------------

 Alpha MOs
 -- Occupied --
-19.422 -19.414 -19.209 -19.209 -19.163  -2.065  -1.411  -1.290
 -1.273  -1.270  -0.953  -0.948  -0.938  -0.884  -0.671  -0.664
 -0.659  -0.421  -0.420  -0.418  -0.416  -0.379  -0.374  -0.362
 -0.352  -0.346  -0.337  -0.330

 Beta MOs
 -- Occupied --
-19.390 -19.387 -19.185 -19.185 -19.154  -2.069  -1.354  -1.292
 -1.276  -1.274  -0.882  -0.868  -0.863  -0.858  -0.625  -0.566
 -0.563  -0.358  -0.358  -0.342  -0.336  -0.333  -0.316  -0.301

          Ground-State Mulliken Net Atomic Charges

     Atom                 Charge (a.u.)    Spin (a.u.)
  --------------------------------------------------------
      1 Zr                    1.457157      -0.220194
      2 O                     0.053822       0.887905
      3 O                    -0.506435       0.946731
      4 O                    -0.515616       0.367291
      5 O                    -0.506519       0.946889
      6 O                     0.017590       1.071377
  --------------------------------------------------------
  Sum of atomic charges =     0.000000

                    Cartesian Multipole Moments
 -----------------------------------------------------------------
    Charge (ESU x 10^10)
                 0.0000
    Dipole Moment (Debye)
         X      -5.8714      Y      -0.2889      Z       0.1140
       Tot       5.8796
    Quadrupole Moments (Debye-Ang)
        XX     -45.1288     XY      -0.4780     YY     -56.4851
        XZ       1.0481     YZ      -0.7263     ZZ     -55.9200

 Total job time:  560.79s(wall), 4148.22s(cpu)
        *  Thank you very much for using Q-Chem.  Have a nice day.  *
