 Q-Chem 4.4, Q-Chem, Inc., Pleasanton, CA (2016)
 Q-Chem 4.4.1 for Intel X86 Linux

User input:
--------------------------------------------------------------
$comment
--------------------------------------------------------

 Q-Chem 4.4, Q-Chem, Inc., Pleasanton, CA (2016)
 Q-Chem 4.4.1 for Intel X86 Linux

User input:
--------------------------------------------------------------

$comment
-----------------------

   27    -820.5282770302      8.48E-09 Convergence criterion met
 Total energy in the final basis set = -820.5282770302
  134    -820.5747302540      7.51E-09 Convergence criterion met
 Total energy in the final basis set = -820.5747302540
   62    -820.5994542103      8.48E-09 Convergence criterion met
 Total energy in the final basis set = -820.5994542103
   58    -820.6163641147      9.49E-09 Convergence criterion met
 Total energy in the final basis set = -820.6163641147
   41    -820.6320843684      8.22E-09 Convergence criterion met
 Total energy in the final basis set = -820.6320843684
   37    -820.6469256802      6.00E-09 Convergence criterion met
 Total energy in the final basis set = -820.6469256802
   36    -820.6608441610      5.96E-09 Convergence criterion met
 Total energy in the final basis set = -820.6608441610
   35    -820.6745352601      8.48E-09 Convergence criterion met
   30    -820.8201355381      5.76E-09 Convergence criterion met
 Total energy in the final basis set = -820.8201355381
   32    -820.8201373583      5.24E-09 Convergence criterion met
 Total energy in the final basis set = -820.8201373583
   31    -820.8201406662      8.41E-09 Convergence criterion met
 Total energy in the final basis set = -820.8201406662
   31    -820.8201450874      8.78E-09 Convergence criterion met
 Total energy in the final basis set = -820.8201450874
   32    -820.8201478127      2.33E-09 Convergence criterion met
 Total energy in the final basis set = -820.8201478127
   28    -820.8201488288      3.32E-09 Convergence criterion met
 Total energy in the final basis set = -820.8201488288

             Standard Nuclear Orientation (Angstroms)
    I     Atom           X                Y                Z
 ----------------------------------------------------------------
    1      Zr      0.1568500588     0.1549490823     0.2879364289
    2      O       2.1317592924     0.5663551059     0.2412226474
    3      O       0.0674076310    -1.6389936466    -1.0890851098
    4      O      -1.6462434818     0.0863015197    -1.0787802960
    5      O      -0.0375781361    -0.0521751554     2.1717512409
    6      O       0.5909289408     2.1260517362     0.2555027643
    7      S      -1.2631243051    -1.2424886421    -1.8285476757
 ----------------------------------------------------------------

   29    -820.8201493419      4.76E-09 Convergence criterion met
 Total energy in the final basis set = -820.8201493419
 Final energy is   -820.820149341916
 **  OPTIMIZATION CONVERGED  **

                    Orbital Energies (a.u.)
 --------------------------------------------------------------

 Alpha MOs
 -- Occupied --
-89.061 -19.262 -19.262 -19.224 -19.224 -19.224  -8.116  -6.081
 -6.078  -6.076  -2.097  -1.311  -1.309  -1.299  -1.128  -1.037
 -1.004  -0.982  -0.954  -0.709  -0.530  -0.510  -0.508  -0.471
 -0.459  -0.429  -0.416  -0.415  -0.411  -0.400  -0.399  -0.380
 -0.377  -0.371  -0.364  -0.272

 Beta MOs
 -- Occupied --
-89.057 -19.228 -19.228 -19.219 -19.219 -19.203  -8.112  -6.078
 -6.074  -6.065  -2.104  -1.315  -1.315  -1.305  -1.116  -1.024
 -0.912  -0.894  -0.883  -0.683  -0.523  -0.499  -0.471  -0.397
 -0.389  -0.383  -0.376  -0.364  -0.356  -0.348  -0.343  -0.331

          Ground-State Mulliken Net Atomic Charges

     Atom                 Charge (a.u.)    Spin (a.u.)
  --------------------------------------------------------
      1 Zr                    1.782794      -0.338215
      2 O                    -0.391591       1.258436
      3 O                    -0.699559       0.156775
      4 O                    -0.699909       0.156473
      5 O                    -0.471331       0.835245
      6 O                    -0.391308       1.259176
      7 S                     0.870903       0.672109
  --------------------------------------------------------
  Sum of atomic charges =     0.000000

                    Cartesian Multipole Moments
 -----------------------------------------------------------------
    Charge (ESU x 10^10)
                 0.0000
    Dipole Moment (Debye)
         X      -2.2398      Y      -2.1877      Z      -2.6610
       Tot       4.1090
    Quadrupole Moments (Debye-Ang)
        XX     -65.6977     XY       0.6857     YY     -65.6951
        XZ       1.1386     YZ       1.1175     ZZ     -63.1835

 Total job time:  1407.90s(wall), 14577.53s(cpu)
        *  Thank you very much for using Q-Chem.  Have a nice day.  *
