 Q-Chem 4.4, Q-Chem, Inc., Pleasanton, CA (2016)
 Q-Chem 4.4.1 for Intel X86 Linux

User input:
--------------------------------------------------------------
$comment
--------------------------------------------------------

  173    -394.0605486153      4.63E-09 Convergence criterion met
 Total energy in the final basis set = -394.0605486153
 Total job time:  121.98s(wall), 877.14s(cpu)
        *  Thank you very much for using Q-Chem.  Have a nice day.  *
 Q-Chem 4.4, Q-Chem, Inc., Pleasanton, CA (2016)
 Q-Chem 4.4.1 for Intel X86 Linux

User input:
--------------------------------------------------------------

$comment
-----------------------

    2    -394.0605486153      6.24E-09 Convergence criterion met
 Total energy in the final basis set = -394.0605486153
   38    -394.0898239345      1.19E-09 Convergence criterion met
 Total energy in the final basis set = -394.0898239345
   32    -394.1017228546      5.21E-09 Convergence criterion met
 Total energy in the final basis set = -394.1017228546
   31    -394.1109487194      5.87E-09 Convergence criterion met
 Total energy in the final basis set = -394.1109487194
   28    -394.1135439650      9.01E-09 Convergence criterion met
 Total energy in the final basis set = -394.1135439650
   29    -394.1141633967      3.10E-09 Convergence criterion met
 Total energy in the final basis set = -394.1141633967
   26    -394.1143350097      8.76E-09 Convergence criterion met
   21    -394.2518374751      7.41E-09 Convergence criterion met
 Total energy in the final basis set = -394.2518374751
   25    -394.2521489471      9.54E-09 Convergence criterion met
 Total energy in the final basis set = -394.2521489471
   23    -394.2522486665      4.88E-09 Convergence criterion met
 Total energy in the final basis set = -394.2522486665
   20    -394.2522609799      4.22E-09 Convergence criterion met
 Total energy in the final basis set = -394.2522609799
   19    -394.2522924529      8.56E-09 Convergence criterion met
 Total energy in the final basis set = -394.2522924529
   19    -394.2522937265      8.56E-09 Convergence criterion met
 Total energy in the final basis set = -394.2522937265

             Standard Nuclear Orientation (Angstroms)
    I     Atom           X                Y                Z
 ----------------------------------------------------------------
    1      Zr     -0.5261856902     0.0000000000     1.6385295536
    2      O       1.2706306229     0.0000000000     0.7428724814
    3      O      -0.9778335602     0.0000000000     3.3836786926
    4      O      -1.2738801315     0.0000000000    -0.3254097803
    5      Zr      0.5235205005     0.0000000000    -1.2196345761
    6      O       0.9837482585     0.0000000000    -2.9633863713
 ----------------------------------------------------------------

   18    -394.2522939756      7.81E-09 Convergence criterion met
 Total energy in the final basis set = -394.2522939756
 Final energy is   -394.252293975593
 **  OPTIMIZATION CONVERGED  **

                    Orbital Energies (a.u.)
 --------------------------------------------------------------

 Alpha MOs
 -- Occupied --
-19.156 -19.156 -19.120 -19.120  -2.087  -2.085  -1.311  -1.294
 -1.292  -1.291  -1.288  -1.283  -0.918  -0.907  -0.848  -0.837
 -0.396  -0.389  -0.377  -0.375  -0.355  -0.347  -0.320  -0.313
 -0.304  -0.294  -0.287  -0.275

          Ground-State Mulliken Net Atomic Charges

     Atom                 Charge (a.u.)
  ----------------------------------------
      1 Zr                    1.610621
      2 O                    -1.025118
      3 O                    -0.585311
      4 O                    -1.025317
      5 Zr                    1.611132
      6 O                    -0.586008
  ----------------------------------------
  Sum of atomic charges =     0.000000

                    Cartesian Multipole Moments
 -----------------------------------------------------------------
    Charge (ESU x 10^10)
                 0.0000
    Dipole Moment (Debye)
         X      -0.0282      Y       0.0000      Z       0.0170
       Tot       0.0330
    Quadrupole Moments (Debye-Ang)
        XX     -73.7335     XY       0.0000     YY     -53.8487
        XZ       4.9115     YZ       0.0000     ZZ    -101.9394

 Total job time:  943.80s(wall), 8631.47s(cpu)
        *  Thank you very much for using Q-Chem.  Have a nice day.  *
