 Q-Chem 4.4, Q-Chem, Inc., Pleasanton, CA (2016)
 Q-Chem 4.4.1 for Intel X86 Linux

User input:
--------------------------------------------------------------
$comment
--------------------------------------------------------

   41    -469.2858167954      6.74E-09 Convergence criterion met
 Total energy in the final basis set = -469.2858167954
 Total job time:  37.15s(wall), 292.35s(cpu)
        *  Thank you very much for using Q-Chem.  Have a nice day.  *
 Q-Chem 4.4, Q-Chem, Inc., Pleasanton, CA (2016)
 Q-Chem 4.4.1 for Intel X86 Linux

User input:
--------------------------------------------------------------

$comment
-----------------------

    4    -469.2858167954      6.92E-09 Convergence criterion met
 Total energy in the final basis set = -469.2858167954
   76    -469.3750644637      3.60E-09 Convergence criterion met
 Total energy in the final basis set = -469.3750644637
   27    -469.3960229586      2.23E-09 Convergence criterion met
 Total energy in the final basis set = -469.3960229586
   23    -469.3969947880      9.10E-09 Convergence criterion met
 Total energy in the final basis set = -469.3969947880
   24    -469.3970216929      3.94E-09 Convergence criterion met
 Total energy in the final basis set = -469.3970216929
   24    -469.3970272910      7.79E-09 Convergence criterion met
 Total energy in the final basis set = -469.3970272910
   36    -469.3924144577      7.99E-09 Convergence criterion met
   32    -469.4096388768      3.14E-09 Convergence criterion met
 Total energy in the final basis set = -469.4096388768
   32    -469.4096580071      5.22E-09 Convergence criterion met
 Total energy in the final basis set = -469.4096580071
   33    -469.4096783406      8.97E-09 Convergence criterion met
 Total energy in the final basis set = -469.4096783406
   30    -469.4096909263      5.09E-09 Convergence criterion met
 Total energy in the final basis set = -469.4096909263
   34    -469.4097070278      3.47E-09 Convergence criterion met
 Total energy in the final basis set = -469.4097070278
   25    -469.4097087528      9.36E-09 Convergence criterion met
 Total energy in the final basis set = -469.4097087528

             Standard Nuclear Orientation (Angstroms)
    I     Atom           X                Y                Z
 ----------------------------------------------------------------
    1      Zr      0.4608547867    -0.2261194591     1.9238800482
    2      O       0.5232227830     1.3717848159     2.7523287728
    3      O      -0.9200488622    -1.1967727516     2.9215193674
    4      O       0.0098657714     0.0258464913    -0.0004061081
    5      Zr     -0.2586804317     0.4440283483    -1.9293823666
    6      O       1.3383359985     0.5759499496    -2.7514813383
    7      O      -1.1535500458    -0.9947173944    -2.9164583755
 ----------------------------------------------------------------

   26    -469.4097097144      3.71E-09 Convergence criterion met
 Total energy in the final basis set = -469.4097097144
 Final energy is   -469.409709714418
 **  OPTIMIZATION CONVERGED  **

                    Orbital Energies (a.u.)
 --------------------------------------------------------------

 Alpha MOs
 -- Occupied --
-19.200 -19.200 -19.151 -19.150 -19.150  -2.062  -2.062  -1.284
 -1.283  -1.274  -1.270  -1.269  -1.264  -0.935  -0.933  -0.903
 -0.874  -0.872  -0.417  -0.410  -0.398  -0.383  -0.370  -0.366
 -0.360  -0.351  -0.342  -0.335  -0.335  -0.331  -0.327  -0.314
 -0.309

 Beta MOs
 -- Occupied --
-19.178 -19.178 -19.151 -19.143 -19.143  -2.065  -2.065  -1.286
 -1.285  -1.276  -1.273  -1.272  -1.266  -0.905  -0.869  -0.867
 -0.854  -0.853  -0.405  -0.374  -0.366  -0.350  -0.343  -0.331
 -0.328  -0.324  -0.323  -0.315  -0.314  -0.305  -0.295

          Ground-State Mulliken Net Atomic Charges

     Atom                 Charge (a.u.)    Spin (a.u.)
  --------------------------------------------------------
      1 Zr                    1.660121      -0.163029
      2 O                    -0.552799       0.286329
      3 O                    -0.524189       0.877021
      4 O                    -1.165710      -0.000684
      5 Zr                    1.659378      -0.162958
      6 O                    -0.552790       0.286220
      7 O                    -0.524012       0.877101
  --------------------------------------------------------
  Sum of atomic charges =     0.000000

                    Cartesian Multipole Moments
 -----------------------------------------------------------------
    Charge (ESU x 10^10)
                 0.0000
    Dipole Moment (Debye)
         X       0.8997      Y       0.9807      Z      -0.0539
       Tot       1.3320
    Quadrupole Moments (Debye-Ang)
        XX     -69.2964     XY     -14.0571     YY     -70.8346
        XZ      17.5033     YZ     -16.7474     ZZ     -92.6732

 Total job time:  949.80s(wall), 9022.18s(cpu)
        *  Thank you very much for using Q-Chem.  Have a nice day.  *
