 Q-Chem 4.4, Q-Chem, Inc., Pleasanton, CA (2016)
 Q-Chem 4.4.1 for Intel X86 Linux

User input:
--------------------------------------------------------------
$comment
--------------------------------------------------------

   30    -121.6994903423      1.27E-09 Convergence criterion met
 Total energy in the final basis set = -121.6994903423
 Total job time:  9.14s(wall), 59.12s(cpu)
        *  Thank you very much for using Q-Chem.  Have a nice day.  *
 Q-Chem 4.4, Q-Chem, Inc., Pleasanton, CA (2016)
 Q-Chem 4.4.1 for Intel X86 Linux

User input:
--------------------------------------------------------------

$comment
-----------------------

   45    -121.7610053932      2.24E-09 Convergence criterion met
 Total energy in the final basis set = -121.7610053932
   16    -121.7681598055      1.27E-09 Convergence criterion met
 Total energy in the final basis set = -121.7681598055
   15    -121.7682284638      9.15E-10 Convergence criterion met
 Total energy in the final basis set = -121.7682284638

             Standard Nuclear Orientation (Angstroms)
    I     Atom           X                Y                Z
 ----------------------------------------------------------------
    1      Zr      0.0000000000     0.0000000000    -0.3135874313
    2      O       0.0000000000     0.0000000000     1.4457174313
 ----------------------------------------------------------------

   12    -121.7682309722      3.92E-09 Convergence criterion met
 Total energy in the final basis set = -121.7682309722
 Final energy is   -121.768230972167
 **  OPTIMIZATION CONVERGED  **

                    Orbital Energies (a.u.)
 --------------------------------------------------------------

 Alpha MOs
 -- Occupied --
-19.119  -2.036  -1.263  -1.235  -1.235  -0.833  -0.312  -0.308
 -0.308  -0.180  -0.178

 Beta MOs
 -- Occupied --
-19.121  -2.009  -1.248  -1.197  -1.197  -0.837  -0.312  -0.311
 -0.311

          Ground-State Mulliken Net Atomic Charges

     Atom                 Charge (a.u.)    Spin (a.u.)
  --------------------------------------------------------
      1 Zr                    0.697019       1.995711
      2 O                    -0.697019       0.004289
  --------------------------------------------------------
  Sum of atomic charges =     0.000000

                    Cartesian Multipole Moments
 -----------------------------------------------------------------
    Charge (ESU x 10^10)
                 0.0000
    Dipole Moment (Debye)
         X       0.0000      Y       0.0000      Z      -4.3756
       Tot       4.3756
    Quadrupole Moments (Debye-Ang)
        XX     -28.2613     XY       0.0000     YY     -28.2613
        XZ       0.0000     YZ       0.0000     ZZ     -33.3572

 Total job time:  30.86s(wall), 181.79s(cpu)
        *  Thank you very much for using Q-Chem.  Have a nice day.  *
