 Q-Chem 4.4, Q-Chem, Inc., Pleasanton, CA (2016)
 Q-Chem 4.4.1 for Intel X86 Linux

User input:
--------------------------------------------------------------
$comment
--------------------------------------------------------

  116    -595.1539921928      8.38E-09 Convergence criterion met
 Total energy in the final basis set = -595.1539921928
 Total job time:  48.11s(wall), 383.33s(cpu)
        *  Thank you very much for using Q-Chem.  Have a nice day.  *
 Q-Chem 4.4, Q-Chem, Inc., Pleasanton, CA (2016)
 Q-Chem 4.4.1 for Intel X86 Linux

User input:
--------------------------------------------------------------

$comment
-----------------------

    3    -595.1539921928      4.72E-09 Convergence criterion met
 Total energy in the final basis set = -595.1539921928
   31    -595.1878827055      2.64E-09 Convergence criterion met
 Total energy in the final basis set = -595.1878827055
   25    -595.2127060474      8.93E-09 Convergence criterion met
 Total energy in the final basis set = -595.2127060474
   26    -595.2160282898      1.57E-09 Convergence criterion met
 Total energy in the final basis set = -595.2160282898
   26    -595.2167019929      1.13E-09 Convergence criterion met
 Total energy in the final basis set = -595.2167019929
   22    -595.2167939300      1.76E-09 Convergence criterion met
 Total energy in the final basis set = -595.2167939300
   21    -595.2168575047      4.71E-09 Convergence criterion met
   20    -595.2180668329      5.14E-09 Convergence criterion met
 Total energy in the final basis set = -595.2180668329
   20    -595.2180850186      8.59E-09 Convergence criterion met
 Total energy in the final basis set = -595.2180850186
   21    -595.2181192857      6.10E-09 Convergence criterion met
 Total energy in the final basis set = -595.2181192857
   22    -595.2181655326      3.27E-09 Convergence criterion met
 Total energy in the final basis set = -595.2181655326
   21    -595.2181946124      4.63E-09 Convergence criterion met
 Total energy in the final basis set = -595.2181946124
   20    -595.2182021006      1.90E-09 Convergence criterion met
 Total energy in the final basis set = -595.2182021006

             Standard Nuclear Orientation (Angstroms)
    I     Atom           X                Y                Z
 ----------------------------------------------------------------
    1      Zr     -0.0120013787     0.0000000000     0.2873887045
    2      O       1.5211586901     0.0000000000     1.1862905820
    3      O      -1.6288139193     0.0000000000     1.4274672969
    4      S       0.1196566079     0.0000000000    -2.2093765834
 ----------------------------------------------------------------

   19    -595.2182027968      6.03E-09 Convergence criterion met
 Total energy in the final basis set = -595.2182027968
 Final energy is   -595.218202796813
 **  OPTIMIZATION CONVERGED  **

                    Orbital Energies (a.u.)
 --------------------------------------------------------------

 Alpha MOs
 -- Occupied --
-88.890 -19.226 -19.170  -7.965  -5.936  -5.921  -5.921  -2.090
 -1.314  -1.292  -1.291  -0.962  -0.890  -0.708  -0.437  -0.399
 -0.380  -0.365  -0.357  -0.353  -0.325  -0.312  -0.297

 Beta MOs
 -- Occupied --
-88.884 -19.203 -19.165  -7.960  -5.919  -5.918  -5.917  -2.092
 -1.314  -1.295  -1.294  -0.896  -0.873  -0.663  -0.377  -0.361
 -0.351  -0.346  -0.345  -0.295  -0.283

          Ground-State Mulliken Net Atomic Charges

     Atom                 Charge (a.u.)    Spin (a.u.)
  --------------------------------------------------------
      1 Zr                    1.206747      -0.166807
      2 O                    -0.548531       0.212954
      3 O                    -0.492186       0.938571
      4 S                    -0.166030       1.015282
  --------------------------------------------------------
  Sum of atomic charges =     0.000000

                    Cartesian Multipole Moments
 -----------------------------------------------------------------
    Charge (ESU x 10^10)
                 0.0000
    Dipole Moment (Debye)
         X      -1.2201      Y       0.0000      Z      -0.6184
       Tot       1.3679
    Quadrupole Moments (Debye-Ang)
        XX     -54.0372     XY       0.0000     YY     -41.9555
        XZ       0.6100     YZ       0.0000     ZZ     -57.1987

 Total job time:  183.26s(wall), 1683.60s(cpu)
        *  Thank you very much for using Q-Chem.  Have a nice day.  *
