 Q-Chem 4.4, Q-Chem, Inc., Pleasanton, CA (2016)
 Q-Chem 4.4.1 for Intel X86 Linux

User input:
--------------------------------------------------------------
$comment
--------------------------------------------------------

   38    -272.1491908967      9.60E-09 Convergence criterion met
 Total energy in the final basis set = -272.1491908967
 Total job time:  32.28s(wall), 140.29s(cpu)
        *  Thank you very much for using Q-Chem.  Have a nice day.  *
 Q-Chem 4.4, Q-Chem, Inc., Pleasanton, CA (2016)
 Q-Chem 4.4.1 for Intel X86 Linux

User input:
--------------------------------------------------------------

$comment
-----------------------

    2    -272.1491908967      8.14E-10 Convergence criterion met
 Total energy in the final basis set = -272.1491908967
   25    -272.1866608289      4.04E-09 Convergence criterion met
 Total energy in the final basis set = -272.1866608289
   26    -272.2073685834      6.90E-09 Convergence criterion met
 Total energy in the final basis set = -272.2073685834
   34    -272.2117585579      2.10E-09 Convergence criterion met
 Total energy in the final basis set = -272.2117585579
   24    -272.2111966115      9.78E-09 Convergence criterion met
 Total energy in the final basis set = -272.2111966115
   26    -272.2148919678      1.04E-09 Convergence criterion met
 Total energy in the final basis set = -272.2148919678
   24    -272.2154449318      9.70E-09 Convergence criterion met
   20    -272.2158090393      9.58E-09 Convergence criterion met
 Total energy in the final basis set = -272.2158090393
   19    -272.2158265052      1.80E-09 Convergence criterion met
 Total energy in the final basis set = -272.2158265052
   21    -272.2159464316      4.36E-09 Convergence criterion met
 Total energy in the final basis set = -272.2159464316
   21    -272.2160762413      6.22E-09 Convergence criterion met
 Total energy in the final basis set = -272.2160762413
   19    -272.2162290572      6.31E-09 Convergence criterion met
 Total energy in the final basis set = -272.2162290572
   19    -272.2163132927      6.81E-09 Convergence criterion met
 Total energy in the final basis set = -272.2163132927

             Standard Nuclear Orientation (Angstroms)
    I     Atom           X                Y                Z
 ----------------------------------------------------------------
    1      Zr      0.0000029962     0.0000000000     0.0275081077
    2      O      -0.0000055675     0.0000000000     1.8164243384
    3      O      -1.7605976568     0.0000000000    -0.9223824303
    4      O       1.7606002273     0.0000000000    -0.9223900157
 ----------------------------------------------------------------

   20    -272.2163266369      4.01E-09 Convergence criterion met
 Total energy in the final basis set = -272.2163266369
 Final energy is   -272.216326636858
 **  OPTIMIZATION CONVERGED  **

                    Orbital Energies (a.u.)
 --------------------------------------------------------------

 Alpha MOs
 -- Occupied --
-19.223 -19.223 -19.166  -2.086  -1.310  -1.293  -1.289  -0.970
 -0.950  -0.887  -0.436  -0.434  -0.394  -0.380  -0.379  -0.373
 -0.353  -0.345  -0.330

 Beta MOs
 -- Occupied --
-19.199 -19.199 -19.159  -2.089  -1.311  -1.295  -1.293  -0.902
 -0.880  -0.866  -0.374  -0.371  -0.358  -0.354  -0.345  -0.326
 -0.308

          Ground-State Mulliken Net Atomic Charges

     Atom                 Charge (a.u.)    Spin (a.u.)
  --------------------------------------------------------
      1 Zr                    1.568633      -0.165694
      2 O                    -0.520899       0.263185
      3 O                    -0.523866       0.951255
      4 O                    -0.523868       0.951255
  --------------------------------------------------------
  Sum of atomic charges =     0.000000

                    Cartesian Multipole Moments
 -----------------------------------------------------------------
    Charge (ESU x 10^10)
                 0.0000
    Dipole Moment (Debye)
         X       0.0000      Y       0.0000      Z      -1.1435
       Tot       1.1435
    Quadrupole Moments (Debye-Ang)
        XX     -48.0512     XY       0.0000     YY     -32.3871
        XZ       0.0001     YZ       0.0000     ZZ     -47.0547

 Total job time:  148.89s(wall), 1145.78s(cpu)
        *  Thank you very much for using Q-Chem.  Have a nice day.  *
