 Q-Chem 4.4, Q-Chem, Inc., Pleasanton, CA (2016)
 Q-Chem 4.4.1 for Intel X86 Linux

User input:
--------------------------------------------------------------
$comment
--------------------------------------------------------

   79    -444.7192276045      9.78E-09 Convergence criterion met
 Total energy in the final basis set = -444.7192276045
 Total job time:  37.66s(wall), 161.81s(cpu)
        *  Thank you very much for using Q-Chem.  Have a nice day.  *
 Q-Chem 4.4, Q-Chem, Inc., Pleasanton, CA (2016)
 Q-Chem 4.4.1 for Intel X86 Linux

User input:
--------------------------------------------------------------

$comment
-----------------------

    3    -444.7192276045      7.34E-10 Convergence criterion met
 Total energy in the final basis set = -444.7192276045
   16    -444.7286801205      5.94E-10 Convergence criterion met
 Total energy in the final basis set = -444.7286801205
   16    -444.7297169783      6.47E-10 Convergence criterion met
 Total energy in the final basis set = -444.7297169783
   14    -444.7297760013      3.25E-09 Convergence criterion met
 Total energy in the final basis set = -444.7297760013

             Standard Nuclear Orientation (Angstroms)
    I     Atom           X                Y                Z
 ----------------------------------------------------------------
    1      Zr      0.0000000000     0.0000000000    -0.6406591251
    2      S       0.0000000000     0.0000000000     1.5713391251
 ----------------------------------------------------------------

   12    -444.7297764941      5.38E-09 Convergence criterion met
 Total energy in the final basis set = -444.7297764941
 Final energy is   -444.729776494140
 **  OPTIMIZATION CONVERGED  **

                    Orbital Energies (a.u.)
 --------------------------------------------------------------

 Alpha MOs
 -- Occupied --
-88.811  -7.890  -5.849  -5.849  -5.849  -2.047  -1.251  -1.247
 -1.247  -0.624  -0.274  -0.253  -0.253  -0.189  -0.188

 Beta MOs
 -- Occupied --
-88.811  -7.891  -5.851  -5.851  -5.850  -2.016  -1.227  -1.206
 -1.206  -0.629  -0.272  -0.253  -0.253

          Ground-State Mulliken Net Atomic Charges

     Atom                 Charge (a.u.)    Spin (a.u.)
  --------------------------------------------------------
      1 Zr                    0.498045       2.026077
      2 S                    -0.498045      -0.026077
  --------------------------------------------------------
  Sum of atomic charges =     0.000000

                    Cartesian Multipole Moments
 -----------------------------------------------------------------
    Charge (ESU x 10^10)
                 0.0000
    Dipole Moment (Debye)
         X       0.0000      Y       0.0000      Z      -5.5143
       Tot       5.5143
    Quadrupole Moments (Debye-Ang)
        XX     -37.5993     XY       0.0000     YY     -37.5993
        XZ       0.0000     YZ       0.0000     ZZ     -37.6609

 Total job time:  27.41s(wall), 152.78s(cpu)
        *  Thank you very much for using Q-Chem.  Have a nice day.  *
