 Q-Chem 4.4, Q-Chem, Inc., Pleasanton, CA (2016)
 Q-Chem 4.4.1 for Intel X86 Linux

User input:
--------------------------------------------------------------
$comment
--------------------------------------------------------

   44    -318.8462587113      4.87E-09 Convergence criterion met
 Total energy in the final basis set = -318.8462587113
 Total job time:  14.91s(wall), 160.50s(cpu)
        *  Thank you very much for using Q-Chem.  Have a nice day.  *
 Q-Chem 4.4, Q-Chem, Inc., Pleasanton, CA (2016)
 Q-Chem 4.4.1 for Intel X86 Linux

User input:
--------------------------------------------------------------

$comment
-----------------------

    3    -318.8462587113      1.31E-09 Convergence criterion met
 Total energy in the final basis set = -318.8462587113
   21    -318.9009975281      4.76E-09 Convergence criterion met
 Total energy in the final basis set = -318.9009975281
   20    -318.9334273884      8.70E-09 Convergence criterion met
 Total energy in the final basis set = -318.9334273884
   23    -318.9512334353      3.53E-09 Convergence criterion met
 Total energy in the final basis set = -318.9512334353
   22    -318.9581838268      2.22E-09 Convergence criterion met
 Total energy in the final basis set = -318.9581838268
   22    -318.9596434445      3.52E-09 Convergence criterion met
 Total energy in the final basis set = -318.9596434445
   20    -318.9604562430      7.00E-09 Convergence criterion met
 Total energy in the final basis set = -318.9604562430
   21    -318.9607365046      5.67E-09 Convergence criterion met
 Total energy in the final basis set = -318.9607365046
   22    -318.9607935713      1.65E-09 Convergence criterion met
 Total energy in the final basis set = -318.9607935713
   20    -318.9608106020      1.22E-09 Convergence criterion met
 Total energy in the final basis set = -318.9608106020
   19    -318.9608143911      2.35E-09 Convergence criterion met
 Total energy in the final basis set = -318.9608143911

             Standard Nuclear Orientation (Angstroms)
    I     Atom           X                Y                Z
 ----------------------------------------------------------------
    1      Zr      1.1203376936     0.6833050176    -0.2931211774
    2      Zr     -1.4897846237    -0.5427751798     0.5377389811
    3      O       0.6748372755     2.3041656194    -0.8731897249
    4      O      -0.2366648302    -0.5716042212    -0.9883971579
    5      O      -1.0298655152    -1.8790212360     1.6169690791
 ----------------------------------------------------------------

   18    -318.9608151462      5.69E-09 Convergence criterion met
 Total energy in the final basis set = -318.9608151462
 Final energy is   -318.960815146224
 **  OPTIMIZATION CONVERGED  **

                    Orbital Energies (a.u.)
 --------------------------------------------------------------

 Alpha MOs
 -- Occupied --
-19.136 -19.113 -19.113  -2.038  -2.036  -1.264  -1.260  -1.256
 -1.238  -1.235  -1.223  -0.883  -0.832  -0.832  -0.367  -0.354
 -0.349  -0.307  -0.306  -0.303  -0.301  -0.297  -0.273  -0.188

          Ground-State Mulliken Net Atomic Charges

     Atom                 Charge (a.u.)
  ----------------------------------------
      1 Zr                    1.075251
      2 Zr                    1.077291
      3 O                    -0.619275
      4 O                    -0.914359
      5 O                    -0.618907
  ----------------------------------------
  Sum of atomic charges =     0.000000

                    Cartesian Multipole Moments
 -----------------------------------------------------------------
    Charge (ESU x 10^10)
                 0.0000
    Dipole Moment (Debye)
         X       0.0651      Y       0.6430      Z       1.0849
       Tot       1.2628
    Quadrupole Moments (Debye-Ang)
        XX     -36.5407     XY      -2.9151     YY     -81.2829
        XZ       0.2181     YZ      11.4871     ZZ     -68.2098

 Total job time:  97.54s(wall), 1006.07s(cpu)
        *  Thank you very much for using Q-Chem.  Have a nice day.  *
