 Q-Chem 4.4, Q-Chem, Inc., Pleasanton, CA (2016)
 Q-Chem 4.4.1 for Intel X86 Linux

User input:
--------------------------------------------------------------
$comment
--------------------------------------------------------

   96    -347.3234195114      8.98E-09 Convergence criterion met
 Total energy in the final basis set = -347.3234195114
 Total job time:  69.37s(wall), 425.20s(cpu)
        *  Thank you very much for using Q-Chem.  Have a nice day.  *
 Q-Chem 4.4, Q-Chem, Inc., Pleasanton, CA (2016)
 Q-Chem 4.4.1 for Intel X86 Linux

User input:
--------------------------------------------------------------

$comment
-----------------------

    3    -347.3234195114      2.76E-09 Convergence criterion met
 Total energy in the final basis set = -347.3234195114
   23    -347.3854212932      5.31E-09 Convergence criterion met
 Total energy in the final basis set = -347.3854212932
   24    -347.4156806623      9.20E-09 Convergence criterion met
 Total energy in the final basis set = -347.4156806623
   24    -347.4236042866      9.10E-09 Convergence criterion met
 Total energy in the final basis set = -347.4236042866
   22    -347.4246074390      6.87E-09 Convergence criterion met
 Total energy in the final basis set = -347.4246074390
   21    -347.4246856576      5.95E-09 Convergence criterion met
 Total energy in the final basis set = -347.4246856576
   20    -347.4246935198      4.19E-09 Convergence criterion met
 Total energy in the final basis set = -347.4246935198
   20    -347.4247013982      9.16E-09 Convergence criterion met
 Total energy in the final basis set = -347.4247013982
   21    -347.4247055228      5.48E-09 Convergence criterion met
 Total energy in the final basis set = -347.4247055228

             Standard Nuclear Orientation (Angstroms)
    I     Atom           X                Y                Z
 ----------------------------------------------------------------
    1      Zr      0.2773516678    -0.0000193668    -0.0007664182
    2      O       1.3007394919     1.5539766679    -0.0012821236
    3      O      -1.8126724928     0.0006747474     0.6659160327
    4      O       1.3004040319    -1.5540075004     0.0020783820
    5      O      -1.8133726988    -0.0006345482    -0.6658458728
 ----------------------------------------------------------------

   19    -347.4247065869      6.11E-09 Convergence criterion met
 Total energy in the final basis set = -347.4247065869
 Final energy is   -347.424706586911
 **  OPTIMIZATION CONVERGED  **

                    Orbital Energies (a.u.)
 --------------------------------------------------------------

 Alpha MOs
 -- Occupied --
-19.293 -19.293 -19.197 -19.197  -2.087  -1.315  -1.309  -1.288
 -1.205  -0.935  -0.917  -0.868  -0.541  -0.535  -0.516  -0.422
 -0.380  -0.376  -0.370  -0.366  -0.351  -0.342  -0.328

 Beta MOs
 -- Occupied --
-19.278 -19.278 -19.181 -19.181  -2.091  -1.314  -1.311  -1.292
 -1.179  -0.891  -0.874  -0.824  -0.518  -0.501  -0.457  -0.362
 -0.359  -0.350  -0.347  -0.321  -0.309

          Ground-State Mulliken Net Atomic Charges

     Atom                 Charge (a.u.)    Spin (a.u.)
  --------------------------------------------------------
      1 Zr                    1.521493      -0.232276
      2 O                    -0.507529       0.609760
      3 O                    -0.253159       0.506778
      4 O                    -0.507560       0.608906
      5 O                    -0.253245       0.506832
  --------------------------------------------------------
  Sum of atomic charges =     0.000000

                    Cartesian Multipole Moments
 -----------------------------------------------------------------
    Charge (ESU x 10^10)
                 0.0000
    Dipole Moment (Debye)
         X      -1.0681      Y       0.0016      Z      -0.0089
       Tot       1.0681
    Quadrupole Moments (Debye-Ang)
        XX     -53.0246     XY       0.0006     YY     -51.6257
        XZ      -0.0046     YZ       0.0143     ZZ     -38.5389

 Total job time:  170.03s(wall), 972.94s(cpu)
        *  Thank you very much for using Q-Chem.  Have a nice day.  *
