 Q-Chem 4.4, Q-Chem, Inc., Pleasanton, CA (2016)
 Q-Chem 4.4.1 for Intel X86 Linux

User input:
--------------------------------------------------------------
$comment
--------------------------------------------------------

   63   -1241.0994389809      3.29E-09 Convergence criterion met
 Total energy in the final basis set = -1241.0994389809
 Total job time:  50.27s(wall), 239.68s(cpu)
        *  Thank you very much for using Q-Chem.  Have a nice day.  *
 Q-Chem 4.4, Q-Chem, Inc., Pleasanton, CA (2016)
 Q-Chem 4.4.1 for Intel X86 Linux

User input:
--------------------------------------------------------------

$comment
-----------------------

    2   -1241.0994389809      9.95E-09 Convergence criterion met
 Total energy in the final basis set = -1241.0994389809
   28   -1241.1146687938      5.28E-09 Convergence criterion met
 Total energy in the final basis set = -1241.1146687938
   31   -1241.1301250654      1.60E-10 Convergence criterion met
 Total energy in the final basis set = -1241.1301250654
   27   -1241.1321848498      3.75E-09 Convergence criterion met
 Total energy in the final basis set = -1241.1321848498
   24   -1241.1323344018      2.82E-09 Convergence criterion met
 Total energy in the final basis set = -1241.1323344018
   25   -1241.1323452457      1.88E-09 Convergence criterion met
 Total energy in the final basis set = -1241.1323452457
   22   -1241.1323633349      8.64E-09 Convergence criterion met
   20   -1241.2095727784      5.68E-09 Convergence criterion met
 Total energy in the final basis set = -1241.2095727784
   18   -1241.2099450879      5.72E-09 Convergence criterion met
 Total energy in the final basis set = -1241.2099450879
   17   -1241.2105703147      7.73E-09 Convergence criterion met
 Total energy in the final basis set = -1241.2105703147
   18   -1241.2108979395      1.87E-09 Convergence criterion met
 Total energy in the final basis set = -1241.2108979395
   16   -1241.2109371128      5.00E-09 Convergence criterion met
 Total energy in the final basis set = -1241.2109371128
   16   -1241.2109368308      2.27E-09 Convergence criterion met
 Total energy in the final basis set = -1241.2109368308

             Standard Nuclear Orientation (Angstroms)
    I     Atom           X                Y                Z
 ----------------------------------------------------------------
    1      Zr      0.7618919349    -0.1456795856     0.0000000000
    2      S      -0.3974698595     2.1626176005     0.0000000000
    3      S       1.1698182821    -2.3536156068     0.0000000000
    4      S      -1.5342203575     0.3366175919     0.0000000000
 ----------------------------------------------------------------

   15   -1241.2109416385      5.59E-09 Convergence criterion met
 Total energy in the final basis set = -1241.2109416385
 Final energy is   -1241.21094163855
 **  OPTIMIZATION CONVERGED  **

                    Orbital Energies (a.u.)
 --------------------------------------------------------------

 Alpha MOs
 -- Occupied --
-88.900 -88.872 -88.833  -7.977  -7.947  -7.912  -5.940  -5.934
 -5.934  -5.913  -5.904  -5.903  -5.872  -5.872  -5.870  -2.094
 -1.298  -1.296  -1.287  -0.781  -0.650  -0.628  -0.379  -0.359
 -0.346  -0.313  -0.281  -0.272  -0.254  -0.238

          Ground-State Mulliken Net Atomic Charges

     Atom                 Charge (a.u.)
  ----------------------------------------
      1 Zr                    0.666860
      2 S                    -0.173769
      3 S                    -0.372488
      4 S                    -0.120603
  ----------------------------------------
  Sum of atomic charges =     0.000000

                    Cartesian Multipole Moments
 -----------------------------------------------------------------
    Charge (ESU x 10^10)
                 0.0000
    Dipole Moment (Debye)
         X       3.0500      Y       1.7632      Z       0.0000
       Tot       3.5230
    Quadrupole Moments (Debye-Ang)
        XX     -60.1227     XY       8.3400     YY     -80.0153
        XZ       0.0000     YZ       0.0000     ZZ     -59.5787

 Total job time:  809.64s(wall), 4316.39s(cpu)
        *  Thank you very much for using Q-Chem.  Have a nice day.  *
