 Q-Chem 4.4, Q-Chem, Inc., Pleasanton, CA (2016)
 Q-Chem 4.4.1 for Intel X86 Linux

User input:
--------------------------------------------------------------
$comment
--------------------------------------------------------

  102   -2435.7309614834      8.12E-09 Convergence criterion met
 Total energy in the final basis set = -2435.7309614834
 Total job time:  95.82s(wall), 748.73s(cpu)
        *  Thank you very much for using Q-Chem.  Have a nice day.  *
 Q-Chem 4.4, Q-Chem, Inc., Pleasanton, CA (2016)
 Q-Chem 4.4.1 for Intel X86 Linux

User input:
--------------------------------------------------------------

$comment
-----------------------

    2   -2435.7309614834      1.27E-07 Convergence criterion met
 Total energy in the final basis set = -2435.7309614834
   25   -2435.7565968206      6.84E-06 Convergence criterion met
 Total energy in the final basis set = -2435.7565968206
   23   -2435.7680143665      9.51E-06 Convergence criterion met
 Total energy in the final basis set = -2435.7680143665
   22   -2435.7728124402      6.16E-06 Convergence criterion met
 Total energy in the final basis set = -2435.7728124402
   20   -2435.7739195993      4.10E-06 Convergence criterion met
 Total energy in the final basis set = -2435.7739195993
   21   -2435.7743905410      4.95E-06 Convergence criterion met
 Total energy in the final basis set = -2435.7743905410
   22   -2435.7749100246      5.85E-06 Convergence criterion met
   13   -2435.8717387517      4.98E-06 Convergence criterion met
 Total energy in the final basis set = -2435.8717387517
   12   -2435.8718095768      8.95E-06 Convergence criterion met
 Total energy in the final basis set = -2435.8718095768
   12   -2435.8718614061      8.09E-06 Convergence criterion met
 Total energy in the final basis set = -2435.8718614061
   11   -2435.8718864841      7.48E-06 Convergence criterion met
 Total energy in the final basis set = -2435.8718864841
   10   -2435.8718932851      4.74E-06 Convergence criterion met
 Total energy in the final basis set = -2435.8718932851
    8   -2435.8718957716      9.40E-06 Convergence criterion met
 Total energy in the final basis set = -2435.8718957716

             Standard Nuclear Orientation (Angstroms)
    I     Atom           X                Y                Z
 ----------------------------------------------------------------
    1      Zr     -0.4146158372     0.0198785643    -0.4606769231
    2      S      -2.8269748072    -0.1547504020    -0.4157024935
    3      S      -1.8474652188     0.0052797001     1.4815485846
    4      S       1.8025404565     0.7682463922     0.8087460583
    5      S       2.7501517069    -0.9481551388     0.0179979101
    6      S       1.0941823771    -1.9305806555    -0.9154113281
    7      S       1.1235213226     1.9651915397    -0.8257818083
 ----------------------------------------------------------------

    8   -2435.8718960385      8.35E-06 Convergence criterion met
 Total energy in the final basis set = -2435.8718960385
 Final energy is   -2435.87189603848
 **  OPTIMIZATION CONVERGED  **

                    Orbital Energies (a.u.)
 --------------------------------------------------------------

 Alpha MOs
 -- Occupied --
-88.965 -88.942 -88.898 -88.893 -88.890 -88.890  -8.038  -8.016
 -7.975  -7.969  -7.967  -7.966  -6.002  -5.998  -5.993  -5.981
 -5.977  -5.968  -5.940  -5.935  -5.932  -5.931  -5.931  -5.930
 -5.927  -5.925  -5.924  -5.924  -5.923  -5.922  -2.095  -1.300
 -1.293  -1.290  -0.872  -0.788  -0.785  -0.700  -0.637  -0.626
 -0.457  -0.430  -0.416  -0.384  -0.378  -0.360  -0.352  -0.337
 -0.323  -0.302  -0.298  -0.288  -0.261  -0.241

          Ground-State Mulliken Net Atomic Charges

     Atom                 Charge (a.u.)
  ----------------------------------------
      1 Zr                   -0.028231
      2 S                    -0.077918
      3 S                    -0.089721
      4 S                     0.156182
      5 S                     0.101558
      6 S                    -0.045172
      7 S                    -0.016698
  ----------------------------------------
  Sum of atomic charges =     0.000000

                    Cartesian Multipole Moments
 -----------------------------------------------------------------
    Charge (ESU x 10^10)
                 0.0000
    Dipole Moment (Debye)
         X       0.9932      Y       0.4608      Z      -1.1322
       Tot       1.5750
    Quadrupole Moments (Debye-Ang)
        XX    -107.4772     XY      -0.0407     YY    -107.2403
        XZ       6.3330     YZ       0.2800     ZZ    -100.0487

 Total job time:  1459.90s(wall), 7284.97s(cpu)
        *  Thank you very much for using Q-Chem.  Have a nice day.  *
