 Q-Chem 4.4, Q-Chem, Inc., Pleasanton, CA (2016)
 Q-Chem 4.4.1 for Intel X86 Linux

User input:
--------------------------------------------------------------
$comment
--------------------------------------------------------

   25    -197.0484839619      6.32E-09 Convergence criterion met
 Total energy in the final basis set = -197.0484839619
 Total job time:  18.06s(wall), 50.18s(cpu)
        *  Thank you very much for using Q-Chem.  Have a nice day.  *
 Q-Chem 4.4, Q-Chem, Inc., Pleasanton, CA (2016)
 Q-Chem 4.4.1 for Intel X86 Linux

User input:
--------------------------------------------------------------

$comment
-----------------------

    3    -197.0484839619      1.10E-09 Convergence criterion met
 Total energy in the final basis set = -197.0484839619
   16    -197.0608193336      5.27E-09 Convergence criterion met
 Total energy in the final basis set = -197.0608193336
   15    -197.0620327429      8.90E-09 Convergence criterion met
 Total energy in the final basis set = -197.0620327429
   13    -197.0620714389      2.91E-09 Convergence criterion met
 Total energy in the final basis set = -197.0620714389

             Standard Nuclear Orientation (Angstroms)
    I     Atom           X                Y                Z
 ----------------------------------------------------------------
    1      Zr     -0.0000000058     0.0000000000     0.3112591901
    2      O      -1.4421117959     0.0000000000    -0.7541095891
    3      O       1.4421118116     0.0000000000    -0.7541096010
 ----------------------------------------------------------------

   12    -197.0620716503      1.52E-09 Convergence criterion met
 Total energy in the final basis set = -197.0620716503
 Final energy is   -197.062071650294
 **  OPTIMIZATION CONVERGED  **

                    Orbital Energies (a.u.)
 --------------------------------------------------------------

 Alpha MOs
 -- Occupied --
-19.102 -19.102  -2.030  -1.255  -1.247  -1.235  -0.830  -0.817
 -0.323  -0.314  -0.305  -0.289  -0.278  -0.245

          Ground-State Mulliken Net Atomic Charges

     Atom                 Charge (a.u.)
  ----------------------------------------
      1 Zr                    1.309848
      2 O                    -0.654924
      3 O                    -0.654924
  ----------------------------------------
  Sum of atomic charges =     0.000000

                    Cartesian Multipole Moments
 -----------------------------------------------------------------
    Charge (ESU x 10^10)
                 0.0000
    Dipole Moment (Debye)
         X       0.0000      Y       0.0000      Z       7.9702
       Tot       7.9702
    Quadrupole Moments (Debye-Ang)
        XX     -44.1989     XY       0.0000     YY     -26.3486
        XZ       0.0000     YZ       0.0000     ZZ     -30.7667

 Total job time:  19.81s(wall), 141.62s(cpu)
        *  Thank you very much for using Q-Chem.  Have a nice day.  *
