 Q-Chem 4.4, Q-Chem, Inc., Pleasanton, CA (2016)
 Q-Chem 4.4.1 for Intel X86 Linux

User input:
--------------------------------------------------------------
$comment
--------------------------------------------------------

   25    -842.9898256738      9.09E-09 Convergence criterion met
 Total energy in the final basis set = -842.9898256738
 Total job time:  12.69s(wall), 63.38s(cpu)
        *  Thank you very much for using Q-Chem.  Have a nice day.  *
 Q-Chem 4.4, Q-Chem, Inc., Pleasanton, CA (2016)
 Q-Chem 4.4.1 for Intel X86 Linux

User input:
--------------------------------------------------------------

$comment
-----------------------

    2    -842.9898256738      4.01E-09 Convergence criterion met
 Total energy in the final basis set = -842.9898256738
   15    -843.0062807727      9.53E-09 Convergence criterion met
 Total energy in the final basis set = -843.0062807727
   13    -843.0064834861      9.89E-09 Convergence criterion met
 Total energy in the final basis set = -843.0064834861

             Standard Nuclear Orientation (Angstroms)
    I     Atom           X                Y                Z
 ----------------------------------------------------------------
    1      Zr     -0.0000000162     0.0000000000     0.5758878023
    2      S      -1.8180362015     0.0000000000    -0.7231288952
    3      S       1.8180362177     0.0000000000    -0.7231289071
 ----------------------------------------------------------------

   14    -843.0064908502      3.68E-09 Convergence criterion met
 Total energy in the final basis set = -843.0064908502
 Final energy is   -843.006490850196
 **  OPTIMIZATION CONVERGED  **

                    Orbital Energies (a.u.)
 --------------------------------------------------------------

 Alpha MOs
 -- Occupied --
-88.823 -88.823  -7.902  -7.902  -5.862  -5.862  -5.862  -5.862
 -5.860  -5.860  -2.067  -1.273  -1.268  -1.263  -0.642  -0.633
 -0.294  -0.288  -0.274  -0.274  -0.265  -0.228

          Ground-State Mulliken Net Atomic Charges

     Atom                 Charge (a.u.)
  ----------------------------------------
      1 Zr                    0.699978
      2 S                    -0.349989
      3 S                    -0.349989
  ----------------------------------------
  Sum of atomic charges =     0.000000

                    Cartesian Multipole Moments
 -----------------------------------------------------------------
    Charge (ESU x 10^10)
                 0.0000
    Dipole Moment (Debye)
         X       0.0000      Y       0.0000      Z       7.0793
       Tot       7.0793
    Quadrupole Moments (Debye-Ang)
        XX     -63.1232     XY       0.0000     YY     -44.8745
        XZ       0.0000     YZ       0.0000     ZZ     -45.2284

 Total job time:  32.34s(wall), 148.33s(cpu)
        *  Thank you very much for using Q-Chem.  Have a nice day.  *
