 Q-Chem 4.4, Q-Chem, Inc., Pleasanton, CA (2016)
 Q-Chem 4.4.1 for Intel X86 Linux

User input:
--------------------------------------------------------------
$comment
--------------------------------------------------------

   27    -196.9572191677      4.83E-09 Convergence criterion met
 Total energy in the final basis set = -196.9572191677
 Total job time:  7.07s(wall), 63.28s(cpu)
        *  Thank you very much for using Q-Chem.  Have a nice day.  *
 Q-Chem 4.4, Q-Chem, Inc., Pleasanton, CA (2016)
 Q-Chem 4.4.1 for Intel X86 Linux

User input:
--------------------------------------------------------------

$comment
-----------------------

    3    -196.9572191677      2.69E-09 Convergence criterion met
 Total energy in the final basis set = -196.9572191677
   16    -196.9685934137      3.49E-09 Convergence criterion met
 Total energy in the final basis set = -196.9685934137
   14    -196.9715163095      3.15E-09 Convergence criterion met
 Total energy in the final basis set = -196.9715163095
   14    -196.9716181316      2.24E-10 Convergence criterion met
 Total energy in the final basis set = -196.9716181316

             Standard Nuclear Orientation (Angstroms)
    I     Atom           X                Y                Z
 ----------------------------------------------------------------
    1      Zr      0.0000000000     0.0000000000     0.0000033170
    2      O       0.0000000000     0.0000000000     1.8713232239
    3      O       0.0000000000     0.0000000000    -1.8713165409
 ----------------------------------------------------------------

   11    -196.9716190354      8.08E-09 Convergence criterion met
 Total energy in the final basis set = -196.9716190354
 Final energy is   -196.971619035410
 **  OPTIMIZATION CONVERGED  **

                    Orbital Energies (a.u.)
 --------------------------------------------------------------

 Alpha MOs
 -- Occupied --
-19.103 -19.103  -2.109  -1.316  -1.316  -1.304  -0.868  -0.804
 -0.340  -0.327  -0.327  -0.263  -0.263  -0.226

          Ground-State Mulliken Net Atomic Charges

     Atom                 Charge (a.u.)
  ----------------------------------------
      1 Zr                    1.429649
      2 O                    -0.714825
      3 O                    -0.714825
  ----------------------------------------
  Sum of atomic charges =     0.000000

                    Cartesian Multipole Moments
 -----------------------------------------------------------------
    Charge (ESU x 10^10)
                 0.0000
    Dipole Moment (Debye)
         X       0.0000      Y       0.0000      Z       0.0000
       Tot       0.0000
    Quadrupole Moments (Debye-Ang)
        XX     -27.7465     XY       0.0000     YY     -27.7465
        XZ       0.0000     YZ       0.0000     ZZ     -60.1262

 Total job time:  22.71s(wall), 175.82s(cpu)
        *  Thank you very much for using Q-Chem.  Have a nice day.  *
