 Q-Chem 4.4, Q-Chem, Inc., Pleasanton, CA (2016)
 Q-Chem 4.4.1 for Intel X86 Linux

User input:
--------------------------------------------------------------
$comment
--------------------------------------------------------

   34    -519.7381531451      3.29E-09 Convergence criterion met
 Total energy in the final basis set = -519.7381531451
 Total job time:  14.06s(wall), 83.29s(cpu)
        *  Thank you very much for using Q-Chem.  Have a nice day.  *
 Q-Chem 4.4, Q-Chem, Inc., Pleasanton, CA (2016)
 Q-Chem 4.4.1 for Intel X86 Linux

User input:
--------------------------------------------------------------

$comment
-----------------------

    5    -519.7381531391      9.55E-09 Convergence criterion met
 Total energy in the final basis set = -519.7381531391
   20    -519.8925169540      2.60E-09 Convergence criterion met
 Total energy in the final basis set = -519.8925169540
   18    -519.9499039887      3.70E-09 Convergence criterion met
 Total energy in the final basis set = -519.9499039887
   17    -519.9692786494      8.51E-09 Convergence criterion met
 Total energy in the final basis set = -519.9692786494
   16    -519.9722543450      9.97E-09 Convergence criterion met
 Total energy in the final basis set = -519.9722543450
   17    -519.9727417967      1.92E-09 Convergence criterion met
 Total energy in the final basis set = -519.9727417967
   17    -519.9728145999      1.38E-09 Convergence criterion met
 Total energy in the final basis set = -519.9728145999
   14    -519.9728224689      8.37E-09 Convergence criterion met
 Total energy in the final basis set = -519.9728224689

             Standard Nuclear Orientation (Angstroms)
    I     Atom           X                Y                Z
 ----------------------------------------------------------------
    1      Zr      0.0000000000     0.0000000000     0.1856006571
    2      O       0.0000000000     0.0000000000     1.9806936734
    3      S       0.0000000000     0.0000000000    -2.1662843305
 ----------------------------------------------------------------

   13    -519.9728230067      9.55E-09 Convergence criterion met
 Total energy in the final basis set = -519.9728230067
 Final energy is   -519.972823006673
 **  OPTIMIZATION CONVERGED  **

                    Orbital Energies (a.u.)
 --------------------------------------------------------------

 Alpha MOs
 -- Occupied --
-88.818 -19.165  -7.894  -5.854  -5.854  -5.852  -2.134  -1.335
 -1.335  -1.334  -0.892  -0.628  -0.368  -0.365  -0.365  -0.246
 -0.246  -0.241

          Ground-State Mulliken Net Atomic Charges

     Atom                 Charge (a.u.)
  ----------------------------------------
      1 Zr                    1.036058
      2 O                    -0.674297
      3 S                    -0.361761
  ----------------------------------------
  Sum of atomic charges =     0.000000

                    Cartesian Multipole Moments
 -----------------------------------------------------------------
    Charge (ESU x 10^10)
                 0.0000
    Dipole Moment (Debye)
         X       0.0000      Y       0.0000      Z       2.7896
       Tot       2.7896
    Quadrupole Moments (Debye-Ang)
        XX     -38.6074     XY       0.0000     YY     -38.6074
        XZ       0.0000     YZ       0.0000     ZZ     -64.9317

 Total job time:  52.63s(wall), 375.95s(cpu)
        *  Thank you very much for using Q-Chem.  Have a nice day.  *
