 Q-Chem 4.4, Q-Chem, Inc., Pleasanton, CA (2016)
 Q-Chem 4.4.1 for Intel X86 Linux

User input:
--------------------------------------------------------------
$comment
--------------------------------------------------------

   29    -519.7599110287      7.14E-09 Convergence criterion met
 Total energy in the final basis set = -519.7599110287
 Total job time:  12.50s(wall), 72.51s(cpu)
        *  Thank you very much for using Q-Chem.  Have a nice day.  *
 Q-Chem 4.4, Q-Chem, Inc., Pleasanton, CA (2016)
 Q-Chem 4.4.1 for Intel X86 Linux

User input:
--------------------------------------------------------------

$comment
-----------------------

    3    -519.7599110287      3.55E-09 Convergence criterion met
 Total energy in the final basis set = -519.7599110287
   19    -519.9241785067      4.60E-09 Convergence criterion met
 Total energy in the final basis set = -519.9241785067
   18    -520.0035781212      6.61E-09 Convergence criterion met
 Total energy in the final basis set = -520.0035781212
   18    -520.0288569302      8.46E-09 Convergence criterion met
 Total energy in the final basis set = -520.0288569302
   17    -520.0352514032      7.01E-09 Convergence criterion met
 Total energy in the final basis set = -520.0352514032
   17    -520.0361336107      3.48E-09 Convergence criterion met
 Total energy in the final basis set = -520.0361336107
   15    -520.0361798061      6.85E-09 Convergence criterion met
 Total energy in the final basis set = -520.0361798061

             Standard Nuclear Orientation (Angstroms)
    I     Atom           X                Y                Z
 ----------------------------------------------------------------
    1      Zr      0.1680211457     0.0000000000     0.3783781374
    2      S      -1.7279483262     0.0000000000    -0.8556406762
    3      O       1.5599271805     0.0000000000    -0.7196974612
 ----------------------------------------------------------------

   13    -520.0361802196      2.76E-09 Convergence criterion met
 Total energy in the final basis set = -520.0361802196
 Final energy is   -520.036180219552
 **  OPTIMIZATION CONVERGED  **

                    Orbital Energies (a.u.)
 --------------------------------------------------------------

 Alpha MOs
 -- Occupied --
-88.807 -19.132  -7.885  -5.846  -5.845  -5.843  -2.056  -1.279
 -1.260  -1.255  -0.850  -0.623  -0.329  -0.327  -0.326  -0.266
 -0.253  -0.226

          Ground-State Mulliken Net Atomic Charges

     Atom                 Charge (a.u.)
  ----------------------------------------
      1 Zr                    1.008255
      2 S                    -0.430809
      3 O                    -0.577446
  ----------------------------------------
  Sum of atomic charges =     0.000000

                    Cartesian Multipole Moments
 -----------------------------------------------------------------
    Charge (ESU x 10^10)
                 0.0000
    Dipole Moment (Debye)
         X       1.5988      Y       0.0000      Z       7.4332
       Tot       7.6032
    Quadrupole Moments (Debye-Ang)
        XX     -53.9134     XY       0.0000     YY     -35.8534
        XZ       1.4533     YZ       0.0000     ZZ     -39.1655

 Total job time:  38.46s(wall), 321.34s(cpu)
        *  Thank you very much for using Q-Chem.  Have a nice day.  *
