 Q-Chem 4.4, Q-Chem, Inc., Pleasanton, CA (2016)
 Q-Chem 4.4.1 for Intel X86 Linux

User input:
--------------------------------------------------------------
$comment
--------------------------------------------------------

   48    -842.5726144182      6.50E-09 Convergence criterion met
 Total energy in the final basis set = -842.5726144182
 Total job time:  19.47s(wall), 115.92s(cpu)
        *  Thank you very much for using Q-Chem.  Have a nice day.  *
 Q-Chem 4.4, Q-Chem, Inc., Pleasanton, CA (2016)
 Q-Chem 4.4.1 for Intel X86 Linux

User input:
--------------------------------------------------------------

$comment
-----------------------

    4    -842.5726144157      3.04E-09 Convergence criterion met
 Total energy in the final basis set = -842.5726144157
   39    -842.7175503239      7.39E-09 Convergence criterion met
 Total energy in the final basis set = -842.7175503239
   18    -842.8374843592      3.85E-09 Convergence criterion met
 Total energy in the final basis set = -842.8374843592
   18    -842.9103338752      1.74E-09 Convergence criterion met
 Total energy in the final basis set = -842.9103338752
   17    -842.9392564093      3.74E-10 Convergence criterion met
 Total energy in the final basis set = -842.9392564093
   17    -842.9446251716      3.43E-10 Convergence criterion met
 Total energy in the final basis set = -842.9446251716
   17    -842.9451224303      1.62E-10 Convergence criterion met
 Total energy in the final basis set = -842.9451224303
   14    -842.9451346913      3.84E-09 Convergence criterion met
 Total energy in the final basis set = -842.9451346913
   13    -842.9451350500      7.81E-09 Convergence criterion met
 Total energy in the final basis set = -842.9451350500

             Standard Nuclear Orientation (Angstroms)
    I     Atom           X                Y                Z
 ----------------------------------------------------------------
    1      Zr      0.0000000000     0.0000000000     0.0000537475
    2      S       0.0000000000     0.0000000000     2.2935296600
    3      S       0.0000000000     0.0000000000    -2.2935734075
 ----------------------------------------------------------------

   12    -842.9451352498      8.91E-09 Convergence criterion met
 Total energy in the final basis set = -842.9451352498
 Final energy is   -842.945135249782
 **  OPTIMIZATION CONVERGED  **

                    Orbital Energies (a.u.)
 --------------------------------------------------------------

 Alpha MOs
 -- Occupied --
-88.834 -88.834  -7.911  -7.910  -5.871  -5.871  -5.871  -5.871
 -5.868  -5.868  -2.135  -1.339  -1.339  -1.314  -0.665  -0.633
 -0.326  -0.305  -0.305  -0.252  -0.252  -0.238

          Ground-State Mulliken Net Atomic Charges

     Atom                 Charge (a.u.)
  ----------------------------------------
      1 Zr                    0.884463
      2 S                    -0.442217
      3 S                    -0.442247
  ----------------------------------------
  Sum of atomic charges =     0.000000

                    Cartesian Multipole Moments
 -----------------------------------------------------------------
    Charge (ESU x 10^10)
                 0.0000
    Dipole Moment (Debye)
         X       0.0000      Y       0.0000      Z       0.0014
       Tot       0.0014
    Quadrupole Moments (Debye-Ang)
        XX     -46.7305     XY       0.0000     YY     -46.7305
        XZ       0.0000     YZ       0.0000     ZZ     -77.7623

 Total job time:  47.81s(wall), 440.00s(cpu)
        *  Thank you very much for using Q-Chem.  Have a nice day.  *
