 Q-Chem 4.4, Q-Chem, Inc., Pleasanton, CA (2016)
 Q-Chem 4.4.1 for Intel X86 Linux

User input:
--------------------------------------------------------------
SINGLE POINT DFT CALCULATION WITH BASIS SET PROJECTION
--------------------------------------------------------

   30    -473.3100778826      8.65E-10 Convergence criterion met
 Total energy in the final basis set = -473.3100778826
   32    -473.3455487626      9.80E-09 Convergence criterion met
 Total energy in the final basis set = -473.3455487626
   10    -473.3455596153      9.27E-09 Convergence criterion met
 Total energy in the final basis set = -473.3455596153

             Standard Nuclear Orientation (Angstroms)
    I     Atom           X                Y                Z
 ----------------------------------------------------------------
    1      S      -0.0165673351    -0.2144344389     0.0000000000
    2      O      -1.3288326649     0.5432344389     0.0000000000
 ----------------------------------------------------------------

    9    -473.3455597568      4.09E-09 Convergence criterion met
 Total energy in the final basis set = -473.3455597568
 Final energy is   -473.345559756799
 **  OPTIMIZATION CONVERGED  **

                    Orbital Energies (a.u.)
 --------------------------------------------------------------

 Alpha MOs
 -- Occupied --
-88.971 -19.227  -8.039  -6.002  -6.002  -5.992  -1.073  -0.668
 -0.453  -0.449  -0.400  -0.265

 Beta MOs
 -- Occupied --
-88.971 -19.227  -8.039  -6.002  -6.002  -5.992  -1.073  -0.668
 -0.453  -0.449  -0.400  -0.265

          Ground-State Mulliken Net Atomic Charges

     Atom                 Charge (a.u.)    Spin (a.u.)
  --------------------------------------------------------
      1 S                     0.374584       0.000000
      2 O                    -0.374584       0.000000
  --------------------------------------------------------
  Sum of atomic charges =     0.000000

                    Cartesian Multipole Moments
 -----------------------------------------------------------------
    Charge (ESU x 10^10)
                 0.0000
    Dipole Moment (Debye)
         X       1.5705      Y      -0.9068      Z       0.0000
       Tot       1.8135
    Quadrupole Moments (Debye-Ang)
        XX     -19.8873     XY       0.8585     YY     -18.0836
        XZ       0.0000     YZ       0.0000     ZZ     -17.7910

 Total job time:  37.75s(wall), 236.21s(cpu)
        *  Thank you very much for using Q-Chem.  Have a nice day.  *
