 Q-Chem 4.4, Q-Chem, Inc., Pleasanton, CA (2016)
 Q-Chem 4.4.1 for Intel X86 Linux

User input:
--------------------------------------------------------------
SINGLE POINT DFT CALCULATION WITH BASIS SET PROJECTION
--------------------------------------------------------

   38    -548.5806933175      6.69E-10 Convergence criterion met
 Total energy in the final basis set = -548.5806933175
   14    -548.5937452362      4.91E-09 Convergence criterion met
 Total energy in the final basis set = -548.5937452362
   13    -548.5947457003      4.08E-09 Convergence criterion met
 Total energy in the final basis set = -548.5947457003
   13    -548.5949365268      1.22E-09 Convergence criterion met
 Total energy in the final basis set = -548.5949365268

             Standard Nuclear Orientation (Angstroms)
    I     Atom           X                Y                Z
 ----------------------------------------------------------------
    1      S       0.0000000000    -0.2043774598     0.0000000000
    2      O      -1.2610316910     0.5429887311     0.0000000000
    3      O       1.2610316869     0.5429887287     0.0000000000
 ----------------------------------------------------------------

   13    -548.5949375190      8.45E-10 Convergence criterion met
 Total energy in the final basis set = -548.5949375190
 Final energy is   -548.594937518962
 **  OPTIMIZATION CONVERGED  **

                    Orbital Energies (a.u.)
 --------------------------------------------------------------

 Alpha MOs
 -- Occupied --
-89.088 -19.223 -19.223  -8.138  -6.101  -6.101  -6.096  -1.153
 -1.062  -0.659  -0.506  -0.503  -0.501  -0.382  -0.369  -0.346

 Beta MOs
 -- Occupied --
-89.088 -19.223 -19.223  -8.138  -6.101  -6.101  -6.096  -1.153
 -1.062  -0.659  -0.506  -0.503  -0.501  -0.382  -0.369  -0.346

          Ground-State Mulliken Net Atomic Charges

     Atom                 Charge (a.u.)    Spin (a.u.)
  --------------------------------------------------------
      1 S                     0.837073       0.000000
      2 O                    -0.418537       0.000000
      3 O                    -0.418537       0.000000
  --------------------------------------------------------
  Sum of atomic charges =     0.000000

                    Cartesian Multipole Moments
 -----------------------------------------------------------------
    Charge (ESU x 10^10)
                 0.0000
    Dipole Moment (Debye)
         X       0.0000      Y      -1.9999      Z       0.0000
       Tot       1.9999
    Quadrupole Moments (Debye-Ang)
        XX     -27.8758     XY       0.0000     YY     -23.8010
        XZ       0.0000     YZ       0.0000     ZZ     -21.0841

 Total job time:  51.38s(wall), 365.75s(cpu)
        *  Thank you very much for using Q-Chem.  Have a nice day.  *
