 Q-Chem 4.4, Q-Chem, Inc., Pleasanton, CA (2016)
 Q-Chem 4.4.1 for Intel X86 Linux

User input:
--------------------------------------------------------------
SINGLE POINT DFT CALCULATION WITH BASIS SET PROJECTION
--------------------------------------------------------

   34   -1242.4744526122      9.12E-09 Convergence criterion met
 Total energy in the final basis set = -1242.4744526122
   16   -1242.4748899307      5.10E-09 Convergence criterion met
 Total energy in the final basis set = -1242.4748899307
   19   -1242.4751421173      9.87E-10 Convergence criterion met
 Total energy in the final basis set = -1242.4751421173
   17   -1242.4758325031      8.23E-09 Convergence criterion met
 Total energy in the final basis set = -1242.4758325031
   17   -1242.4764402858      9.25E-09 Convergence criterion met
 Total energy in the final basis set = -1242.4764402858
   20   -1242.4773410605      2.70E-09 Convergence criterion met
 Total energy in the final basis set = -1242.4773410605
   18   -1242.4782374210      3.91E-09 Convergence criterion met
 Total energy in the final basis set = -1242.4782374210
   20   -1242.4775110872      1.10E-09 Convergence criterion met
 Total energy in the final basis set = -1242.4775110872
   18   -1242.4790362939      8.65E-09 Convergence criterion met
 Total energy in the final basis set = -1242.4790362939
   16   -1242.4790456852      7.15E-09 Convergence criterion met
 Total energy in the final basis set = -1242.4790456852
   16   -1242.4790650803      7.73E-09 Convergence criterion met
 Total energy in the final basis set = -1242.4790650803
   16   -1242.4790763258      2.17E-09 Convergence criterion met
 Total energy in the final basis set = -1242.4790763258

             Standard Nuclear Orientation (Angstroms)
    I     Atom           X                Y                Z
 ----------------------------------------------------------------
    1      Zr      0.0011811577     0.0462390261    -0.7852206146
    2      S      -2.0341915850     1.1618042365     0.0109706207
    3      S       2.0355297564     1.1625393838     0.0113378494
    4      S       0.0018217553    -2.0600770930    -0.1063312376
    5      H      -2.7242395509     0.0828802356     0.4340471150
    6      H       2.7198984666     0.0809142110     0.4363962671
 ----------------------------------------------------------------

   14   -1242.4790765252      3.07E-09 Convergence criterion met
 Total energy in the final basis set = -1242.4790765252
 Final energy is   -1242.47907652518
 **  OPTIMIZATION CONVERGED  **

                    Orbital Energies (a.u.)
 --------------------------------------------------------------

 Alpha MOs
 -- Occupied --
-88.865 -88.865 -88.837  -7.944  -7.944  -7.916  -5.907  -5.907
 -5.902  -5.902  -5.901  -5.901  -5.876  -5.876  -5.875  -2.079
 -1.282  -1.278  -1.276  -0.725  -0.720  -0.653  -0.421  -0.420
 -0.322  -0.308  -0.300  -0.290  -0.283  -0.281  -0.270

 Beta MOs
 -- Occupied --
-88.865 -88.865 -88.837  -7.944  -7.944  -7.916  -5.907  -5.907
 -5.902  -5.902  -5.901  -5.901  -5.876  -5.876  -5.875  -2.079
 -1.282  -1.278  -1.276  -0.725  -0.720  -0.653  -0.421  -0.420
 -0.322  -0.308  -0.300  -0.290  -0.283  -0.281  -0.270

          Ground-State Mulliken Net Atomic Charges

     Atom                 Charge (a.u.)    Spin (a.u.)
  --------------------------------------------------------
      1 Zr                    0.532655       0.000000
      2 S                    -0.241164       0.000000
      3 S                    -0.240740       0.000000
      4 S                    -0.282208       0.000000
      5 H                     0.115666       0.000000
      6 H                     0.115791       0.000000
  --------------------------------------------------------
  Sum of atomic charges =     0.000000

                    Cartesian Multipole Moments
 -----------------------------------------------------------------
    Charge (ESU x 10^10)
                 0.0000
    Dipole Moment (Debye)
         X      -0.0023      Y       0.4276      Z      -3.5512
       Tot       3.5769
    Quadrupole Moments (Debye-Ang)
        XX     -66.2569     XY       0.0078     YY     -74.5858
        XZ      -0.0040     YZ      -1.9612     ZZ     -56.5529

 Total job time:  209.85s(wall), 2138.18s(cpu)
        *  Thank you very much for using Q-Chem.  Have a nice day.  *
